<?xml version="1.0" encoding="ISO-8859-1"?>
<modeling>
 <generator>
  <i name="program" type="string">vasp </i>
  <i name="version" type="string">5.4.4.18Apr17-6-g9f103f2a35  </i>
  <i name="subversion" type="string">(build Feb 19 2020 16:12:31) complex            parallel </i>
  <i name="platform" type="string">LinuxIFC </i>
  <i name="date" type="string">2023 07 25 </i>
  <i name="time" type="string">11:30:27 </i>
 </generator>
 <incar>
  <i type="string" name="SYSTEM">tin_ni_interf_surf_ni_sub_Nb</i>
  <i type="string" name="PREC">normal</i>
  <i type="string" name="ALGO">Normal</i>
  <i type="logical" name="ADDGRID"> T  </i>
  <i type="int" name="ISPIN">     2</i>
  <i type="int" name="NELM">   100</i>
  <i type="int" name="IBRION">     1</i>
  <i name="EDIFF">      0.00001000</i>
  <i name="EDIFFG">      0.00100000</i>
  <i type="int" name="NSW">   100</i>
  <i type="int" name="ISIF">     2</i>
  <i name="ENCUT">    450.00000000</i>
  <v name="MAGMOM">      0.00000000      0.00000000      0.00200000      0.00300000      0.00000000      0.00000000      0.00200000      0.00400000      0.00000000      0.00000000      0.00200000      0.01900000      0.00000000      0.00000000      0.00200000      0.01300000      0.00000000      0.00000000      0.00200000      0.00400000
      0.00000000      0.00000000      0.00200000      0.01800000      0.00000000      0.00000000      0.00200000      0.02700000      0.00000000      0.00000000      0.00200000      0.00800000      0.00000000      0.00000000      0.00200000      0.01900000      0.00000000      0.00000000      0.00200000      0.02700000
      0.00000000      0.00000000      0.00100000      0.02200000      0.00000000      0.00000000      0.00100000      0.01900000      0.00000000      0.00000000      0.00200000      0.01200000      0.00000000      0.00000000      0.00200000      0.00800000      0.00000000      0.00000000      0.00100000      0.01900000
      0.00000000      0.00000000      0.00100000      0.02500000      0.00000000      0.20000000      0.37400000      0.41800000      0.49700000      0.52000000      0.17900000      0.30900000      0.41100000      0.49500000      0.51800000      0.24600000      0.32700000      0.43000000      0.50000000      0.51900000
      0.39300000      0.42100000      0.45300000      0.50500000      0.52200000      0.33900000      0.45700000      0.44400000      0.50400000      0.52300000      0.16400000      0.30900000      0.41100000      0.49300000      0.51800000      0.17200000      0.29700000      0.41600000      0.49500000      0.51600000
      0.26600000      0.33800000      0.43700000      0.50000000      0.52000000      0.31200000      0.41000000      0.44300000      0.50000000      0.52200000      0.20100000      0.38100000      0.42500000      0.49700000      0.52100000      0.17300000      0.32900000      0.43000000      0.49500000      0.51900000
      0.21000000      0.33900000      0.43700000      0.49800000      0.52000000      0.30600000      0.38300000      0.44100000      0.49900000      0.52300000      0.39900000      0.44000000      0.49800000      0.52300000      0.18000000      0.35700000      0.43200000      0.49600000      0.52100000      0.26700000
      0.42300000      0.45300000      0.50000000      0.52200000      0.30700000      0.41100000      0.44300000      0.49900000      0.52200000      0.31500000      0.39900000      0.44000000      0.49900000      0.52300000      0.28000000      0.40200000      0.44500000      0.49800000      0.52200000      0.24800000
      0.41600000      0.45600000      0.50000000      0.52100000      0.31400000      0.45700000      0.44400000      0.50000000      0.52200000      0.26300000      0.38100000      0.42500000      0.49800000      0.52100000      0.27900000      0.35700000      0.43200000      0.49800000      0.52100000      0.33300000
      0.41500000      0.45500000      0.50200000      0.52100000      0.39600000      0.47700000      0.46700000      0.50500000      0.52300000      0.00000000      0.00000000      0.00100000     -0.00500000      0.00000000      0.00000000      0.00100000     -0.00700000      0.00000000      0.00000000      0.00000000
     -0.00200000      0.00000000      0.00000000      0.00100000     -0.00300000      0.00000000      0.00000000      0.00100000     -0.00700000      0.00000000      0.00000000      0.00000000     -0.00800000      0.00000000      0.00000000     -0.00100000     -0.01600000      0.00000000      0.00000000      0.00000000
     -0.01200000      0.00000000      0.00000000      0.00000000     -0.00200000      0.00000000      0.00000000     -0.00100000     -0.01600000      0.00000000      0.00000000     -0.00100000     -0.01900000      0.00000000      0.00000000      0.00100000     -0.00800000      0.00000000      0.00000000      0.00100000
     -0.00300000      0.00000000      0.00000000      0.00000000     -0.01200000      0.00000000      0.00000000      0.00100000     -0.00800000      0.00100000      0.00000000      0.00100000      0.00100000</v>
  <i type="string" name="LREAL">Auto</i>
  <i type="int" name="ISMEAR">    -1</i>
  <i type="logical" name="LWAVE"> F  </i>
  <i type="logical" name="LCHARG"> T  </i>
  <i type="int" name="LORBIT">    11</i>
  <v type="int" name="KPOINT_BSE">    -1     0     0     0</v>
  <i type="int" name="NELM">   100</i>
 </incar>
 <structure name="primitive_cell" >
  <crystal>
   <varray name="basis" >
    <v>      12.22300000       0.00000000       0.00000000 </v>
    <v>       6.09300000      10.55338557       0.00000000 </v>
    <v>       0.00000000       0.00000000      34.98440085 </v>
   </varray>
   <i name="volume">   4512.77891652 </i>
   <varray name="rec_basis" >
    <v>       0.08181298      -0.04723474       0.00000000 </v>
    <v>       0.00000000       0.09475632       0.00000000 </v>
    <v>       0.00000000       0.00000000       0.02858417 </v>
   </varray>
  </crystal>
  <varray name="positions" >
   <v>       0.12500000       0.12500000       0.05267780 </v>
   <v>       0.04166667       0.29166667       0.01755925 </v>
   <v>       0.20833333      -0.04166667       0.08779635 </v>
   <v>       0.04166667       0.04166667       0.01755925 </v>
   <v>       0.20833333       0.20833333       0.08779635 </v>
   <v>       0.29166667       0.04166667       0.01755925 </v>
   <v>      -0.04166667       0.20833333       0.08779635 </v>
   <v>       0.04166667       0.29166667       0.12291490 </v>
   <v>       0.04166667       0.04166667       0.12291490 </v>
   <v>       0.29166667       0.04166667       0.12291490 </v>
   <v>       0.12500000       0.37500000       0.05267780 </v>
   <v>       0.12500000      -0.12500000       0.05267780 </v>
   <v>       0.37500000      -0.12500000       0.05267780 </v>
   <v>      -0.12500000       0.37500000       0.05267780 </v>
   <v>       0.37500000       0.12500000       0.05267780 </v>
   <v>      -0.12500000       0.12500000       0.05267780 </v>
   <v>       0.12477360       0.12465271       0.15807213 </v>
   <v>       0.29166667      -0.20833333       0.01755925 </v>
   <v>      -0.04166667       0.45833333       0.08779635 </v>
   <v>       0.29166667       0.29166667       0.01755925 </v>
   <v>      -0.04166667      -0.04166667       0.08779635 </v>
   <v>       0.45833333      -0.04166667       0.08779635 </v>
   <v>      -0.20833333       0.29166667       0.01755925 </v>
   <v>       0.29166667      -0.20833333       0.12291490 </v>
   <v>       0.29166667       0.29166667       0.12291490 </v>
   <v>      -0.20833333       0.29166667       0.12291490 </v>
   <v>       0.12509189      -0.12574041       0.15815789 </v>
   <v>       0.12504966       0.37568338       0.15815591 </v>
   <v>       0.37570238      -0.12620174       0.15810264 </v>
   <v>      -0.12621863       0.37565326       0.15812059 </v>
   <v>       0.37578753       0.12497227       0.15815783 </v>
   <v>      -0.12572451       0.12502553       0.15817597 </v>
   <v>       0.04166667      -0.45833333       0.01755925 </v>
   <v>       0.20833333      -0.29166667       0.08779635 </v>
   <v>       0.20833333       0.45833333       0.08779635 </v>
   <v>       0.04166667      -0.20833333       0.01755925 </v>
   <v>       0.45833333      -0.29166667       0.08779635 </v>
   <v>      -0.20833333      -0.45833333       0.01755925 </v>
   <v>      -0.29166667       0.45833333       0.08779635 </v>
   <v>      -0.45833333      -0.20833333       0.01755925 </v>
   <v>       0.45833333       0.20833333       0.08779635 </v>
   <v>      -0.20833333       0.04166667       0.01755925 </v>
   <v>      -0.45833333       0.04166667       0.01755925 </v>
   <v>      -0.29166667       0.20833333       0.08779635 </v>
   <v>       0.20870870       0.20853306       0.19094453 </v>
   <v>       0.20829970      -0.04292155       0.19148025 </v>
   <v>      -0.04286473       0.20820963       0.19148899 </v>
   <v>       0.04166667      -0.45833333       0.12291490 </v>
   <v>       0.04166667      -0.20833333       0.12291490 </v>
   <v>      -0.20833333      -0.45833333       0.12291490 </v>
   <v>      -0.45833333      -0.20833333       0.12291490 </v>
   <v>      -0.20833333       0.04166667       0.12291490 </v>
   <v>      -0.45833333       0.04166667       0.12291490 </v>
   <v>       0.37500000      -0.37500000       0.05267780 </v>
   <v>      -0.12500000      -0.37500000       0.05267780 </v>
   <v>       0.37500000       0.37500000       0.05267780 </v>
   <v>      -0.12500000      -0.12500000       0.05267780 </v>
   <v>      -0.37500000       0.37500000       0.05267780 </v>
   <v>      -0.37500000      -0.12500000       0.05267780 </v>
   <v>      -0.04267361       0.45999635       0.19169854 </v>
   <v>       0.46012190      -0.04273296       0.19169100 </v>
   <v>      -0.04239087      -0.04242920       0.19203712 </v>
   <v>       0.12500000      -0.37500000       0.05267780 </v>
   <v>      -0.37500000      -0.37500000       0.05267780 </v>
   <v>      -0.37500000       0.12500000       0.05267780 </v>
   <v>       0.29253856       0.04042623       0.22960350 </v>
   <v>       0.03984427       0.29306578       0.22963533 </v>
   <v>       0.37520211      -0.37539133       0.15804914 </v>
   <v>      -0.12517907      -0.37462484       0.15808527 </v>
   <v>      -0.12511324      -0.12511233       0.15789950 </v>
   <v>       0.37553813       0.37545972       0.15805593 </v>
   <v>      -0.37539233       0.37516586       0.15805870 </v>
   <v>      -0.37457104      -0.12525627       0.15807674 </v>
   <v>       0.29166667      -0.45833333       0.01755925 </v>
   <v>      -0.04166667      -0.29166667       0.08779635 </v>
   <v>       0.04014937       0.04061493       0.23016200 </v>
   <v>      -0.45833333      -0.45833333       0.01755925 </v>
   <v>      -0.29166667      -0.29166667       0.08779635 </v>
   <v>      -0.45833333       0.29166667       0.01755925 </v>
   <v>      -0.29166667      -0.04166667       0.08779635 </v>
   <v>       0.20801729      -0.29189960       0.19197842 </v>
   <v>       0.45881482      -0.29227257       0.19192968 </v>
   <v>       0.20819216       0.45946713       0.19186577 </v>
   <v>      -0.29229969       0.45878401       0.19194814 </v>
   <v>      -0.29191888       0.20799032       0.19201220 </v>
   <v>       0.45955620       0.20811052       0.19188503 </v>
   <v>       0.29166667      -0.45833333       0.12291490 </v>
   <v>      -0.45833333      -0.45833333       0.12291490 </v>
   <v>      -0.45833333       0.29166667       0.12291490 </v>
   <v>       0.12481058       0.12469296       0.25407892 </v>
   <v>       0.29269236      -0.21034964       0.22916482 </v>
   <v>       0.12482888      -0.37471758       0.15807461 </v>
   <v>      -0.21081843       0.29304949       0.22919854 </v>
   <v>      -0.37501820      -0.37501307       0.15803821 </v>
   <v>      -0.37467853       0.12475090       0.15808358 </v>
   <v>       0.29299790       0.29333456       0.22963852 </v>
   <v>       0.45833333       0.45833333       0.08779635 </v>
   <v>      -0.20833333      -0.20833333       0.01755925 </v>
   <v>      -0.20833333      -0.20833333       0.12291490 </v>
   <v>       0.12524656       0.37546978       0.25505450 </v>
   <v>       0.37568177       0.12506511       0.25507633 </v>
   <v>       0.04123378      -0.20861724       0.22950516 </v>
   <v>      -0.45792063      -0.20964883       0.22929992 </v>
   <v>      -0.21016337      -0.45744284       0.22931805 </v>
   <v>      -0.20904277       0.04164343       0.22955028 </v>
   <v>      -0.12731169       0.37643565       0.25628185 </v>
   <v>       0.37653961      -0.12734596       0.25631817 </v>
   <v>       0.04098394      -0.45652496       0.23026780 </v>
   <v>      -0.45693827       0.04140694       0.23023687 </v>
   <v>       0.12553062      -0.12850593       0.25749567 </v>
   <v>      -0.12828567       0.12536962       0.25747349 </v>
   <v>      -0.29137252      -0.29138356       0.19203722 </v>
   <v>      -0.04224748      -0.29106103       0.19215756 </v>
   <v>      -0.29100854      -0.04228161       0.19215714 </v>
   <v>       0.45846480       0.45840245       0.19191367 </v>
   <v>      -0.45865312      -0.45834602       0.22766191 </v>
   <v>       0.29253812      -0.45825163       0.22824422 </v>
   <v>      -0.45854318       0.29277799       0.22828488 </v>
   <v>       0.13270657       0.13343257       0.30602235 </v>
   <v>      -0.12729102      -0.37195885       0.25923384 </v>
   <v>       0.37735775       0.37734777       0.25881746 </v>
   <v>      -0.37184675      -0.12735139       0.25926553 </v>
   <v>      -0.12588693      -0.12594756       0.26070798 </v>
   <v>       0.37762273      -0.37812324       0.26061920 </v>
   <v>      -0.37819342       0.37759620       0.26063944 </v>
   <v>       0.13279937      -0.06741685       0.30563638 </v>
   <v>      -0.06821626       0.13349231       0.30564997 </v>
   <v>       0.33459613      -0.06848017       0.30595590 </v>
   <v>      -0.06925879       0.33525541       0.30597641 </v>
   <v>       0.13280104       0.33555514       0.30591787 </v>
   <v>       0.33500722       0.13339409       0.30589056 </v>
   <v>      -0.20829956      -0.20785972       0.22970093 </v>
   <v>       0.12571194      -0.37395225       0.25921771 </v>
   <v>      -0.37375855       0.12548427       0.25931233 </v>
   <v>      -0.37605560      -0.37598665       0.25985814 </v>
   <v>      -0.06729199      -0.06667554       0.30417311 </v>
   <v>       0.33417468      -0.26838783       0.30538741 </v>
   <v>      -0.26911615       0.33478196       0.30542666 </v>
   <v>      -0.06728804      -0.46556615       0.30513521 </v>
   <v>      -0.46601524      -0.06673736       0.30507176 </v>
   <v>       0.33408638       0.33459402       0.30605409 </v>
   <v>       0.13403359      -0.26675112       0.30187136 </v>
   <v>      -0.26738754       0.13447413       0.30204470 </v>
   <v>      -0.46647582      -0.26802771       0.30418220 </v>
   <v>      -0.26878205      -0.46577840       0.30425176 </v>
   <v>       0.13317061      -0.46494745       0.30490669 </v>
   <v>      -0.46539809       0.13363278       0.30490681 </v>
   <v>      -0.06698133      -0.26582801       0.30228113 </v>
   <v>      -0.26624763      -0.06651421       0.30234488 </v>
   <v>       0.33458144      -0.46658210       0.30317454 </v>
   <v>      -0.46704887       0.33500036       0.30321690 </v>
   <v>      -0.26701460      -0.26653408       0.30046492 </v>
   <v>      -0.46746353      -0.46685612       0.30301365 </v>
   <v>       0.19984956      -0.00014848       0.36374804 </v>
   <v>      -0.00041827       0.20011322       0.36376266 </v>
   <v>       0.20001473       0.20025207       0.36374669 </v>
   <v>      -0.00055609      -0.00028690       0.36349844 </v>
   <v>      -0.00039379       0.40071957       0.36377230 </v>
   <v>       0.40052287      -0.00017861       0.36374914 </v>
   <v>       0.19974693      -0.20042367       0.36325907 </v>
   <v>      -0.20072511       0.19999808       0.36330752 </v>
   <v>       0.40037362      -0.20041143       0.36361517 </v>
   <v>      -0.20067029       0.40055919       0.36363754 </v>
   <v>       0.19982121       0.40084625       0.36375757 </v>
   <v>       0.40059006       0.20004043       0.36375892 </v>
   <v>       0.00022053      -0.20054791       0.36235289 </v>
   <v>      -0.20071465       0.00038605       0.36240525 </v>
   <v>      -0.20079129      -0.39910075       0.36274147 </v>
   <v>      -0.39927399      -0.20058225       0.36271335 </v>
   <v>      -0.00036645      -0.39912068       0.36313259 </v>
   <v>      -0.39932421      -0.00019771       0.36312801 </v>
   <v>       0.40035442      -0.40042178       0.36347774 </v>
   <v>      -0.40069340       0.40061254       0.36351392 </v>
   <v>       0.40030186       0.40056674       0.36337154 </v>
   <v>       0.20044628      -0.39946228       0.36276426 </v>
   <v>      -0.39973033       0.20058729       0.36283811 </v>
   <v>      -0.40035470      -0.40008870       0.36325464 </v>
   <v>      -0.20028844      -0.20014554       0.36180833 </v>
   <v>       0.06651397       0.06650569       0.42209293 </v>
   <v>       0.06667385       0.26678292       0.42213627 </v>
   <v>       0.26680756       0.06667651       0.42211878 </v>
   <v>       0.26668026      -0.13349848       0.42196575 </v>
   <v>      -0.13357567       0.26666351       0.42199300 </v>
   <v>       0.26677343       0.26683050       0.42210953 </v>
   <v>       0.06639535      -0.13351771       0.42176956 </v>
   <v>      -0.13359403       0.06645606       0.42178978 </v>
   <v>      -0.13361771       0.46717875       0.42192206 </v>
   <v>       0.46720744      -0.13355201       0.42190234 </v>
   <v>       0.06653174       0.46718419       0.42203090 </v>
   <v>       0.46711216       0.06659457       0.42202855 </v>
   <v>       0.26652516      -0.33329269       0.42181893 </v>
   <v>      -0.33349424       0.26667887       0.42184457 </v>
   <v>       0.46675747      -0.33336743       0.42195860 </v>
   <v>      -0.33349174       0.46682412       0.42197295 </v>
   <v>       0.26670578       0.46699836       0.42187170 </v>
   <v>       0.46688017       0.26679217       0.42188423 </v>
   <v>      -0.13338608      -0.13339860       0.42123752 </v>
   <v>      -0.13360190      -0.33282132       0.42152339 </v>
   <v>      -0.33288541      -0.13351063       0.42151484 </v>
   <v>       0.06670827      -0.33315344       0.42159350 </v>
   <v>      -0.33317965       0.06672409       0.42162149 </v>
   <v>      -0.33325180      -0.33321447       0.42163387 </v>
   <v>       0.46653364       0.46672548       0.42199963 </v>
   <v>       0.13333333       0.13333333       0.48055316 </v>
   <v>       0.13333333      -0.06666667       0.48055316 </v>
   <v>      -0.06666667       0.13333333       0.48055316 </v>
   <v>      -0.06666667       0.33333333       0.48055316 </v>
   <v>       0.33333333      -0.06666667       0.48055316 </v>
   <v>       0.13333333       0.33333333       0.48055316 </v>
   <v>       0.33333333       0.13333333       0.48055316 </v>
   <v>      -0.06666667      -0.06666667       0.48055316 </v>
   <v>       0.33333333      -0.26666667       0.48055316 </v>
   <v>      -0.26666667       0.33333333       0.48055316 </v>
   <v>      -0.06666667      -0.46666667       0.48055316 </v>
   <v>      -0.46666667      -0.06666667       0.48055316 </v>
   <v>       0.33333333       0.33333333       0.48055316 </v>
   <v>       0.13333333      -0.26666667       0.48055316 </v>
   <v>      -0.26666667       0.13333333       0.48055316 </v>
   <v>      -0.26666667      -0.46666667       0.48055316 </v>
   <v>      -0.46666667      -0.26666667       0.48055316 </v>
   <v>       0.13333333      -0.46666667       0.48055316 </v>
   <v>      -0.46666667       0.13333333       0.48055316 </v>
   <v>      -0.06666667      -0.26666667       0.48055316 </v>
   <v>      -0.26666667      -0.06666667       0.48055316 </v>
   <v>       0.33333333      -0.46666667       0.48055316 </v>
   <v>      -0.46666667       0.33333333       0.48055316 </v>
   <v>      -0.46666667      -0.46666667       0.48055316 </v>
   <v>      -0.26666667      -0.26666667       0.48055316 </v>
   <v>       0.20000000       0.00000000      -0.46138901 </v>
   <v>       0.00000000       0.20000000      -0.46138901 </v>
   <v>       0.20000000       0.20000000      -0.46138901 </v>
   <v>       0.00000000       0.00000000      -0.46138901 </v>
   <v>       0.00000000       0.40000000      -0.46138901 </v>
   <v>       0.40000000       0.00000000      -0.46138901 </v>
   <v>       0.20000000      -0.20000000      -0.46138901 </v>
   <v>      -0.20000000       0.20000000      -0.46138901 </v>
   <v>       0.40000000      -0.20000000      -0.46138901 </v>
   <v>      -0.20000000       0.40000000      -0.46138901 </v>
   <v>       0.20000000       0.40000000      -0.46138901 </v>
   <v>       0.40000000       0.20000000      -0.46138901 </v>
   <v>       0.00000000      -0.20000000      -0.46138901 </v>
   <v>      -0.20000000       0.00000000      -0.46138901 </v>
   <v>      -0.20000000      -0.40000000      -0.46138901 </v>
   <v>      -0.40000000      -0.20000000      -0.46138901 </v>
   <v>       0.00000000      -0.40000000      -0.46138901 </v>
   <v>      -0.40000000       0.00000000      -0.46138901 </v>
   <v>       0.40000000      -0.40000000      -0.46138901 </v>
   <v>      -0.40000000       0.40000000      -0.46138901 </v>
   <v>       0.40000000       0.40000000      -0.46138901 </v>
   <v>       0.20000000      -0.40000000      -0.46138901 </v>
   <v>      -0.40000000       0.20000000      -0.46138901 </v>
   <v>      -0.40000000      -0.40000000      -0.46138901 </v>
   <v>      -0.20000000      -0.20000000      -0.46138901 </v>
  </varray>
 </structure>
 <varray name="primitive_index" >
  <v type="int" >        1 </v>
  <v type="int" >      194 </v>
  <v type="int" >      203 </v>
  <v type="int" >      190 </v>
  <v type="int" >      191 </v>
  <v type="int" >      206 </v>
  <v type="int" >      239 </v>
  <v type="int" >        6 </v>
  <v type="int" >        2 </v>
  <v type="int" >       18 </v>
  <v type="int" >        5 </v>
  <v type="int" >       13 </v>
  <v type="int" >       29 </v>
  <v type="int" >       53 </v>
  <v type="int" >       17 </v>
  <v type="int" >       49 </v>
  <v type="int" >      192 </v>
  <v type="int" >      218 </v>
  <v type="int" >      243 </v>
  <v type="int" >      210 </v>
  <v type="int" >      251 </v>
  <v type="int" >      219 </v>
  <v type="int" >      242 </v>
  <v type="int" >       30 </v>
  <v type="int" >       22 </v>
  <v type="int" >       54 </v>
  <v type="int" >      204 </v>
  <v type="int" >      196 </v>
  <v type="int" >      220 </v>
  <v type="int" >      244 </v>
  <v type="int" >      208 </v>
  <v type="int" >      240 </v>
  <v type="int" >      198 </v>
  <v type="int" >      199 </v>
  <v type="int" >      195 </v>
  <v type="int" >      202 </v>
  <v type="int" >      215 </v>
  <v type="int" >      246 </v>
  <v type="int" >      227 </v>
  <v type="int" >      234 </v>
  <v type="int" >      207 </v>
  <v type="int" >      238 </v>
  <v type="int" >      222 </v>
  <v type="int" >      223 </v>
  <v type="int" >        3 </v>
  <v type="int" >       15 </v>
  <v type="int" >       51 </v>
  <v type="int" >       10 </v>
  <v type="int" >       14 </v>
  <v type="int" >       58 </v>
  <v type="int" >       46 </v>
  <v type="int" >       50 </v>
  <v type="int" >       34 </v>
  <v type="int" >       25 </v>
  <v type="int" >       57 </v>
  <v type="int" >       21 </v>
  <v type="int" >       61 </v>
  <v type="int" >       37 </v>
  <v type="int" >       45 </v>
  <v type="int" >       55 </v>
  <v type="int" >       31 </v>
  <v type="int" >       63 </v>
  <v type="int" >        9 </v>
  <v type="int" >       41 </v>
  <v type="int" >       33 </v>
  <v type="int" >      209 </v>
  <v type="int" >      197 </v>
  <v type="int" >      216 </v>
  <v type="int" >      248 </v>
  <v type="int" >      252 </v>
  <v type="int" >      212 </v>
  <v type="int" >      228 </v>
  <v type="int" >      236 </v>
  <v type="int" >      214 </v>
  <v type="int" >      247 </v>
  <v type="int" >      193 </v>
  <v type="int" >      230 </v>
  <v type="int" >      231 </v>
  <v type="int" >      226 </v>
  <v type="int" >      235 </v>
  <v type="int" >       11 </v>
  <v type="int" >       27 </v>
  <v type="int" >        7 </v>
  <v type="int" >       39 </v>
  <v type="int" >       35 </v>
  <v type="int" >       19 </v>
  <v type="int" >       26 </v>
  <v type="int" >       42 </v>
  <v type="int" >       38 </v>
  <v type="int" >        4 </v>
  <v type="int" >      221 </v>
  <v type="int" >      200 </v>
  <v type="int" >      245 </v>
  <v type="int" >      232 </v>
  <v type="int" >      224 </v>
  <v type="int" >      213 </v>
  <v type="int" >      211 </v>
  <v type="int" >      250 </v>
  <v type="int" >       62 </v>
  <v type="int" >        8 </v>
  <v type="int" >       20 </v>
  <v type="int" >      205 </v>
  <v type="int" >      237 </v>
  <v type="int" >      249 </v>
  <v type="int" >      241 </v>
  <v type="int" >       56 </v>
  <v type="int" >       32 </v>
  <v type="int" >      201 </v>
  <v type="int" >      225 </v>
  <v type="int" >       16 </v>
  <v type="int" >       52 </v>
  <v type="int" >       43 </v>
  <v type="int" >       59 </v>
  <v type="int" >       47 </v>
  <v type="int" >       23 </v>
  <v type="int" >      233 </v>
  <v type="int" >      217 </v>
  <v type="int" >      229 </v>
  <v type="int" >       91 </v>
  <v type="int" >       60 </v>
  <v type="int" >       24 </v>
  <v type="int" >       48 </v>
  <v type="int" >       64 </v>
  <v type="int" >       28 </v>
  <v type="int" >       40 </v>
  <v type="int" >      111 </v>
  <v type="int" >       66 </v>
  <v type="int" >      135 </v>
  <v type="int" >       71 </v>
  <v type="int" >       96 </v>
  <v type="int" >      116 </v>
  <v type="int" >      253 </v>
  <v type="int" >       12 </v>
  <v type="int" >       36 </v>
  <v type="int" >       44 </v>
  <v type="int" >       86 </v>
  <v type="int" >       65 </v>
  <v type="int" >      170 </v>
  <v type="int" >       76 </v>
  <v type="int" >      160 </v>
  <v type="int" >      121 </v>
  <v type="int" >      106 </v>
  <v type="int" >      165 </v>
  <v type="int" >      155 </v>
  <v type="int" >      175 </v>
  <v type="int" >      101 </v>
  <v type="int" >      140 </v>
  <v type="int" >       81 </v>
  <v type="int" >      185 </v>
  <v type="int" >      126 </v>
  <v type="int" >      145 </v>
  <v type="int" >      180 </v>
  <v type="int" >      150 </v>
  <v type="int" >       92 </v>
  <v type="int" >       72 </v>
  <v type="int" >       97 </v>
  <v type="int" >       67 </v>
  <v type="int" >       77 </v>
  <v type="int" >      117 </v>
  <v type="int" >      112 </v>
  <v type="int" >      171 </v>
  <v type="int" >      136 </v>
  <v type="int" >      176 </v>
  <v type="int" >      102 </v>
  <v type="int" >      122 </v>
  <v type="int" >       87 </v>
  <v type="int" >      166 </v>
  <v type="int" >      181 </v>
  <v type="int" >      161 </v>
  <v type="int" >       82 </v>
  <v type="int" >      141 </v>
  <v type="int" >      131 </v>
  <v type="int" >      151 </v>
  <v type="int" >      127 </v>
  <v type="int" >      107 </v>
  <v type="int" >      146 </v>
  <v type="int" >      156 </v>
  <v type="int" >      186 </v>
  <v type="int" >       68 </v>
  <v type="int" >       73 </v>
  <v type="int" >       93 </v>
  <v type="int" >      113 </v>
  <v type="int" >      172 </v>
  <v type="int" >       98 </v>
  <v type="int" >       88 </v>
  <v type="int" >      167 </v>
  <v type="int" >      177 </v>
  <v type="int" >      137 </v>
  <v type="int" >       78 </v>
  <v type="int" >      118 </v>
  <v type="int" >      108 </v>
  <v type="int" >      147 </v>
  <v type="int" >      132 </v>
  <v type="int" >      152 </v>
  <v type="int" >      103 </v>
  <v type="int" >      123 </v>
  <v type="int" >      187 </v>
  <v type="int" >      182 </v>
  <v type="int" >      162 </v>
  <v type="int" >       83 </v>
  <v type="int" >      142 </v>
  <v type="int" >      157 </v>
  <v type="int" >      128 </v>
  <v type="int" >       94 </v>
  <v type="int" >      114 </v>
  <v type="int" >       69 </v>
  <v type="int" >       74 </v>
  <v type="int" >      138 </v>
  <v type="int" >       99 </v>
  <v type="int" >      119 </v>
  <v type="int" >       89 </v>
  <v type="int" >      133 </v>
  <v type="int" >      173 </v>
  <v type="int" >       79 </v>
  <v type="int" >      163 </v>
  <v type="int" >      124 </v>
  <v type="int" >      109 </v>
  <v type="int" >      168 </v>
  <v type="int" >      178 </v>
  <v type="int" >      158 </v>
  <v type="int" >      104 </v>
  <v type="int" >      143 </v>
  <v type="int" >       84 </v>
  <v type="int" >      188 </v>
  <v type="int" >      129 </v>
  <v type="int" >      148 </v>
  <v type="int" >      153 </v>
  <v type="int" >      183 </v>
  <v type="int" >       95 </v>
  <v type="int" >       75 </v>
  <v type="int" >      100 </v>
  <v type="int" >       70 </v>
  <v type="int" >       80 </v>
  <v type="int" >      120 </v>
  <v type="int" >      115 </v>
  <v type="int" >      174 </v>
  <v type="int" >      139 </v>
  <v type="int" >      179 </v>
  <v type="int" >      105 </v>
  <v type="int" >      125 </v>
  <v type="int" >       90 </v>
  <v type="int" >      169 </v>
  <v type="int" >      184 </v>
  <v type="int" >      164 </v>
  <v type="int" >       85 </v>
  <v type="int" >      144 </v>
  <v type="int" >      134 </v>
  <v type="int" >      154 </v>
  <v type="int" >      130 </v>
  <v type="int" >      110 </v>
  <v type="int" >      149 </v>
  <v type="int" >      159 </v>
  <v type="int" >      189 </v>
 </varray>
 <kpoints>
  <generation param="Monkhorst-Pack">
   <v type="int" name="divisions">       2        2        1 </v>
   <v name="usershift">      0.00000000       0.00000000       0.00000000 </v>
   <v name="genvec1">      0.50000000       0.00000000       0.00000000 </v>
   <v name="genvec2">      0.00000000       0.50000000       0.00000000 </v>
   <v name="genvec3">      0.00000000       0.00000000       1.00000000 </v>
   <v name="shift">      0.50000000       0.50000000       0.00000000 </v>
  </generation>
  <varray name="kpointlist" >
   <v>       0.25000000       0.25000000       0.00000000 </v>
   <v>      -0.25000000       0.25000000       0.00000000 </v>
  </varray>
  <varray name="weights" >
   <v>       0.50000000 </v>
   <v>       0.50000000 </v>
  </varray>
 </kpoints>
 <parameters>
  <separator name="general" >
   <i type="string" name="SYSTEM">tin_ni_interf_surf_ni_sub_Nb</i>
   <i type="logical" name="LCOMPAT"> F  </i>
  </separator>
  <separator name="electronic" >
   <i type="string" name="PREC">normal</i>
   <i name="ENMAX">    450.00000000</i>
   <i name="ENAUG">    627.11200000</i>
   <i name="EDIFF">      0.00001000</i>
   <i type="int" name="IALGO">    38</i>
   <i type="int" name="IWAVPR">    11</i>
   <i type="int" name="NBANDS">  1440</i>
   <i name="NELECT">   2341.00000000</i>
   <i type="int" name="TURBO">     0</i>
   <i type="int" name="IRESTART">     0</i>
   <i type="int" name="NREBOOT">     0</i>
   <i type="int" name="NMIN">     0</i>
   <i name="EREF">      0.00000000</i>
   <separator name="electronic smearing" >
    <i type="int" name="ISMEAR">    -1</i>
    <i name="SIGMA">      0.20000000</i>
    <i name="KSPACING">      0.50000000</i>
    <i type="logical" name="KGAMMA"> T  </i>
   </separator>
   <separator name="electronic projectors" >
    <i type="logical" name="LREAL"> T  </i>
    <v name="ROPT">     -0.00050000     -0.00050000     -0.00050000     -0.00050000</v>
    <i type="int" name="LMAXPAW">  -100</i>
    <i type="int" name="LMAXMIX">     2</i>
    <i type="logical" name="NLSPLINE"> F  </i>
   </separator>
   <separator name="electronic startup" >
    <i type="int" name="ISTART">     0</i>
    <i type="int" name="ICHARG">     2</i>
    <i type="int" name="INIWAV">     1</i>
   </separator>
   <separator name="electronic spin" >
    <i type="int" name="ISPIN">     2</i>
    <i type="logical" name="LNONCOLLINEAR"> F  </i>
    <v name="MAGMOM">      0.00000000      0.00000000      0.00200000      0.00300000      0.00000000      0.00000000      0.00200000      0.00400000      0.00000000      0.00000000      0.00200000      0.01900000      0.00000000      0.00000000      0.00200000      0.01300000      0.00000000      0.00000000      0.00200000      0.00400000
      0.00000000      0.00000000      0.00200000      0.01800000      0.00000000      0.00000000      0.00200000      0.02700000      0.00000000      0.00000000      0.00200000      0.00800000      0.00000000      0.00000000      0.00200000      0.01900000      0.00000000      0.00000000      0.00200000      0.02700000
      0.00000000      0.00000000      0.00100000      0.02200000      0.00000000      0.00000000      0.00100000      0.01900000      0.00000000      0.00000000      0.00200000      0.01200000      0.00000000      0.00000000      0.00200000      0.00800000      0.00000000      0.00000000      0.00100000      0.01900000
      0.00000000      0.00000000      0.00100000      0.02500000      0.00000000      0.20000000      0.37400000      0.41800000      0.49700000      0.52000000      0.17900000      0.30900000      0.41100000      0.49500000      0.51800000      0.24600000      0.32700000      0.43000000      0.50000000      0.51900000
      0.39300000      0.42100000      0.45300000      0.50500000      0.52200000      0.33900000      0.45700000      0.44400000      0.50400000      0.52300000      0.16400000      0.30900000      0.41100000      0.49300000      0.51800000      0.17200000      0.29700000      0.41600000      0.49500000      0.51600000
      0.26600000      0.33800000      0.43700000      0.50000000      0.52000000      0.31200000      0.41000000      0.44300000      0.50000000      0.52200000      0.20100000      0.38100000      0.42500000      0.49700000      0.52100000      0.17300000      0.32900000      0.43000000      0.49500000      0.51900000
      0.21000000      0.33900000      0.43700000      0.49800000      0.52000000      0.30600000      0.38300000      0.44100000      0.49900000      0.52300000      0.39900000      0.44000000      0.49800000      0.52300000      0.18000000      0.35700000      0.43200000      0.49600000      0.52100000      0.26700000
      0.42300000      0.45300000      0.50000000      0.52200000      0.30700000      0.41100000      0.44300000      0.49900000      0.52200000      0.31500000      0.39900000      0.44000000      0.49900000      0.52300000      0.28000000      0.40200000      0.44500000      0.49800000      0.52200000      0.24800000
      0.41600000      0.45600000      0.50000000      0.52100000      0.31400000      0.45700000      0.44400000      0.50000000      0.52200000      0.26300000      0.38100000      0.42500000      0.49800000      0.52100000      0.27900000      0.35700000      0.43200000      0.49800000      0.52100000      0.33300000
      0.41500000      0.45500000      0.50200000      0.52100000      0.39600000      0.47700000      0.46700000      0.50500000      0.52300000      0.00000000      0.00000000      0.00100000     -0.00500000      0.00000000      0.00000000      0.00100000     -0.00700000      0.00000000      0.00000000      0.00000000
     -0.00200000      0.00000000      0.00000000      0.00100000     -0.00300000      0.00000000      0.00000000      0.00100000     -0.00700000      0.00000000      0.00000000      0.00000000     -0.00800000      0.00000000      0.00000000     -0.00100000     -0.01600000      0.00000000      0.00000000      0.00000000
     -0.01200000      0.00000000      0.00000000      0.00000000     -0.00200000      0.00000000      0.00000000     -0.00100000     -0.01600000      0.00000000      0.00000000     -0.00100000     -0.01900000      0.00000000      0.00000000      0.00100000     -0.00800000      0.00000000      0.00000000      0.00100000
     -0.00300000      0.00000000      0.00000000      0.00000000     -0.01200000      0.00000000      0.00000000      0.00100000     -0.00800000      0.00100000      0.00000000      0.00100000      0.00100000</v>
    <i name="NUPDOWN">     -1.00000000</i>
    <i type="logical" name="LSORBIT"> F  </i>
    <v name="SAXIS">      0.00000000      0.00000000      1.00000000</v>
    <i type="logical" name="LSPIRAL"> F  </i>
    <v name="QSPIRAL">      0.00000000      0.00000000      0.00000000</v>
    <i type="logical" name="LZEROZ"> F  </i>
   </separator>
   <separator name="electronic exchange-correlation" >
    <i type="logical" name="LASPH"> F  </i>
    <i type="logical" name="LMETAGGA"> F  </i>
   </separator>
   <separator name="electronic convergence" >
    <i type="int" name="NELM">   100</i>
    <i type="int" name="NELMDL">    -5</i>
    <i type="int" name="NELMIN">     2</i>
    <i name="ENINI">    450.00000000</i>
    <separator name="electronic convergence detail" >
     <i type="logical" name="LDIAG"> T  </i>
     <i type="logical" name="LSUBROT"> F  </i>
     <i name="WEIMIN">      0.00100000</i>
     <i name="EBREAK">      0.00000000</i>
     <i name="DEPER">      0.30000000</i>
     <i type="int" name="NRMM">     4</i>
     <i name="TIME">      0.40000000</i>
    </separator>
   </separator>
   <separator name="electronic mixer" >
    <i name="AMIX">      0.40000000</i>
    <i name="BMIX">      1.00000000</i>
    <i name="AMIN">      0.10000000</i>
    <i name="AMIX_MAG">      1.60000000</i>
    <i name="BMIX_MAG">      1.00000000</i>
    <separator name="electronic mixer details" >
     <i type="int" name="IMIX">     4</i>
     <i type="logical" name="MIXFIRST"> F  </i>
     <i type="int" name="MAXMIX">   -45</i>
     <i name="WC">    100.00000000</i>
     <i type="int" name="INIMIX">     1</i>
     <i type="int" name="MIXPRE">     1</i>
     <i type="int" name="MREMOVE">     5</i>
    </separator>
   </separator>
   <separator name="electronic dipolcorrection" >
    <i type="logical" name="LDIPOL"> F  </i>
    <i type="logical" name="LMONO"> F  </i>
    <i type="int" name="IDIPOL">     0</i>
    <i name="EPSILON">      1.00000000</i>
    <v name="DIPOL">   -100.00000000   -100.00000000   -100.00000000</v>
    <i name="EFIELD">      0.00000000</i>
   </separator>
  </separator>
  <separator name="grids" >
   <i type="int" name="NGX">    64</i>
   <i type="int" name="NGY">    64</i>
   <i type="int" name="NGZ">   192</i>
   <i type="int" name="NGXF">   128</i>
   <i type="int" name="NGYF">   128</i>
   <i type="int" name="NGZF">   384</i>
   <i type="logical" name="ADDGRID"> T  </i>
  </separator>
  <separator name="ionic" >
   <i type="int" name="NSW">   100</i>
   <i type="int" name="IBRION">     1</i>
   <i type="int" name="MDALGO">     0</i>
   <i type="int" name="ISIF">     2</i>
   <i name="PSTRESS">      0.00000000</i>
   <i name="EDIFFG">      0.00100000</i>
   <i type="int" name="NFREE">     0</i>
   <i name="POTIM">      0.50000000</i>
   <i name="SMASS">     -3.00000000</i>
   <i name="SCALEE">      1.00000000</i>
  </separator>
  <separator name="ionic md" >
   <i name="TEBEG">      0.00010000</i>
   <i name="TEEND">      0.00010000</i>
   <i type="int" name="NBLOCK">     1</i>
   <i type="int" name="KBLOCK">   100</i>
   <i type="int" name="NPACO">   256</i>
   <i name="APACO">     16.00000000</i>
  </separator>
  <separator name="symmetry" >
   <i type="int" name="ISYM">     2</i>
   <i name="SYMPREC">      0.00001000</i>
  </separator>
  <separator name="dos" >
   <i type="int" name="LORBIT">    11</i>
   <v name="RWIGS">     -1.00000000     -1.00000000     -1.00000000     -1.00000000</v>
   <i type="int" name="NEDOS">   301</i>
   <i name="EMIN">     10.00000000</i>
   <i name="EMAX">    -10.00000000</i>
   <i name="EFERMI">      0.00000000</i>
  </separator>
  <separator name="writing" >
   <i type="int" name="NWRITE">     2</i>
   <i type="logical" name="LWAVE"> F  </i>
   <i type="logical" name="LDOWNSAMPLE"> F  </i>
   <i type="logical" name="LCHARG"> T  </i>
   <i type="logical" name="LPARD"> F  </i>
   <i type="logical" name="LVTOT"> F  </i>
   <i type="logical" name="LVHAR"> F  </i>
   <i type="logical" name="LELF"> F  </i>
   <i type="logical" name="LOPTICS"> F  </i>
   <v name="STM">      0.00000000      0.00000000      0.00000000      0.00000000      0.00000000      0.00000000      0.00000000</v>
  </separator>
  <separator name="performance" >
   <i type="int" name="NPAR">    15</i>
   <i type="int" name="NSIM">     4</i>
   <i type="int" name="NBLK">    -1</i>
   <i type="logical" name="LPLANE"> T  </i>
   <i type="logical" name="LSCALAPACK"> T  </i>
   <i type="logical" name="LSCAAWARE"> T  </i>
   <i type="logical" name="LSCALU"> F  </i>
   <i type="logical" name="LASYNC"> F  </i>
   <i type="logical" name="LORBITALREAL"> F  </i>
  </separator>
  <separator name="miscellaneous" >
   <i type="int" name="IDIOT">     3</i>
   <i type="int" name="ISPECIAL">     0</i>
   <i type="logical" name="LMUSIC"> F  </i>
   <v name="POMASS">     14.00100000     92.91000000     58.69000000     47.88000000</v>
   <v name="DARWINR">      0.00000000      0.00000000      0.00000000      0.00000000</v>
   <v name="DARWINV">      1.00000000      1.00000000      1.00000000      1.00000000</v>
   <i type="logical" name="LCORR"> T  </i>
  </separator>
  <i type="logical" name="GGA_COMPAT"> T  </i>
  <i type="logical" name="LBERRY"> F  </i>
  <i type="int" name="ICORELEVEL">     0</i>
  <i type="logical" name="LDAU"> F  </i>
  <i type="int" name="I_CONSTRAINED_M">     0</i>
  <separator name="electronic exchange-correlation" >
   <i type="string" name="GGA">--</i>
   <i type="int" name="VOSKOWN">     0</i>
   <i type="logical" name="LHFCALC"> F  </i>
   <i type="string" name="PRECFOCK"></i>
   <i type="logical" name="LSYMGRAD"> F  </i>
   <i type="logical" name="LHFONE"> F  </i>
   <i type="logical" name="LRHFCALC"> F  </i>
   <i type="logical" name="LTHOMAS"> F  </i>
   <i type="logical" name="LMODELHF"> F  </i>
   <i name="ENCUT4O">     -1.00000000</i>
   <i type="int" name="EXXOEP">     0</i>
   <i type="int" name="FOURORBIT">     0</i>
   <i name="AEXX">      0.00000000</i>
   <i name="HFALPHA">      0.00000000</i>
   <i name="MCALPHA">      0.00000000</i>
   <i name="ALDAX">      1.00000000</i>
   <i name="AGGAX">      1.00000000</i>
   <i name="ALDAC">      1.00000000</i>
   <i name="AGGAC">      1.00000000</i>
   <i type="int" name="NKREDX">     1</i>
   <i type="int" name="NKREDY">     1</i>
   <i type="int" name="NKREDZ">     1</i>
   <i type="logical" name="SHIFTRED"> F  </i>
   <i type="logical" name="ODDONLY"> F  </i>
   <i type="logical" name="EVENONLY"> F  </i>
   <i type="int" name="LMAXFOCK">     0</i>
   <i type="int" name="NMAXFOCKAE">     0</i>
   <i type="logical" name="LFOCKAEDFT"> F  </i>
   <i name="HFSCREEN">      0.00000000</i>
   <i name="HFSCREENC">      0.00000000</i>
   <i type="int" name="NBANDSGWLOW">     0</i>
  </separator>
  <separator name="vdW DFT" >
   <i type="logical" name="LUSE_VDW"> F  </i>
   <i name="Zab_VDW">     -0.84910000</i>
   <i name="PARAM1">      0.12340000</i>
   <i name="PARAM2">      1.00000000</i>
   <i name="PARAM3">      0.00000000</i>
  </separator>
  <separator name="model GW" >
   <i type="int" name="MODEL_GW">     0</i>
   <i name="MODEL_EPS0">     10.70224249</i>
   <i name="MODEL_ALPHA">      1.00000000</i>
  </separator>
  <separator name="linear response parameters" >
   <i type="logical" name="LEPSILON"> F  </i>
   <i type="logical" name="LRPA"> F  </i>
   <i type="logical" name="LNABLA"> F  </i>
   <i type="logical" name="LVEL"> F  </i>
   <i type="int" name="KINTER">     0</i>
   <i name="CSHIFT">      0.10000000</i>
   <i name="OMEGAMAX">     -1.00000000</i>
   <i name="DEG_THRESHOLD">      0.00200000</i>
   <i name="RTIME">     -0.10000000</i>
   <i name="WPLASMAI">      0.00000000</i>
   <v name="DFIELD">      0.00000000      0.00000000      0.00000000</v>
   <v name="WPLASMA">      0.00000000      0.00000000      0.00000000      0.00000000      0.00000000      0.00000000      0.00000000      0.00000000      0.00000000</v>
  </separator>
  <separator name="orbital magnetization" >
   <i type="logical" name="NUCIND"> F  </i>
   <v name="MAGPOS">      0.00000000      0.00000000      0.00000000</v>
   <i type="logical" name="LNICSALL"> T  </i>
   <i type="logical" name="ORBITALMAG"> F  </i>
   <i type="logical" name="LMAGBLOCH"> F  </i>
   <i type="logical" name="LCHIMAG"> F  </i>
   <i type="logical" name="LGAUGE"> T  </i>
   <i type="int" name="MAGATOM">     0</i>
   <v name="MAGDIPOL">      0.00000000      0.00000000      0.00000000</v>
   <v name="AVECCONST">      0.00000000      0.00000000      0.00000000</v>
  </separator>
  <separator name="response functions" >
   <i type="logical" name="LADDER"> F  </i>
   <i type="logical" name="LRPAFORCE"> F  </i>
   <i type="logical" name="LFXC"> F  </i>
   <i type="logical" name="LHARTREE"> T  </i>
   <i type="int" name="IBSE">     0</i>
   <v type="int" name="KPOINT">    -1     0     0     0</v>
   <i type="logical" name="LTCTE"> F  </i>
   <i type="logical" name="LTETE"> F  </i>
   <i type="logical" name="LTRIPLET"> F  </i>
   <i type="logical" name="LFXCEPS"> F  </i>
   <i type="logical" name="LFXHEG"> F  </i>
   <i type="int" name="NATURALO">     2</i>
   <i type="logical" name="L2ORDER"> F  </i>
   <i type="logical" name="LMP2LT"> F  </i>
   <i type="logical" name="LUSEW"> F  </i>
   <i name="ENCUTGW">     -2.00000000</i>
   <i name="ENCUTGWSOFT">     -2.00000000</i>
   <i name="ENCUTLF">     -1.00000000</i>
   <i type="int" name="LMAXMP2">    -1</i>
   <i name="SCISSOR">      0.00000000</i>
   <i type="int" name="NOMEGA">     0</i>
   <i type="int" name="NOMEGAR">     0</i>
   <i type="int" name="NBANDSGW">    -1</i>
   <i type="int" name="NBANDSO">    -1</i>
   <i type="int" name="NBANDSV">    -1</i>
   <i type="int" name="NELM">   100</i>
   <i type="int" name="NELMHF">     1</i>
   <i type="int" name="DIM">     3</i>
   <i type="int" name="ANTIRES">     0</i>
   <i name="OMEGAMAX">    -30.00000000</i>
   <i name="OMEGAMIN">    -30.00000000</i>
   <i name="OMEGATL">   -200.00000000</i>
   <i type="int" name="OMEGAGRID">   140</i>
   <i name="CSHIFT">     -0.10000000</i>
   <i type="logical" name="SELFENERGY"> F  </i>
   <i type="logical" name="LSPECTRAL"> F  </i>
   <i type="logical" name="LSPECTRALGW"> F  </i>
   <i type="logical" name="LSINGLES"> F  </i>
   <i type="logical" name="LFERMIGW"> F  </i>
   <i type="logical" name="ODDONLYGW"> F  </i>
   <i type="logical" name="EVENONLYGW"> F  </i>
   <i type="int" name="NKREDLFX">     1</i>
   <i type="int" name="NKREDLFY">     1</i>
   <i type="int" name="NKREDLFZ">     1</i>
   <i type="int" name="MAXMEM">  2800</i>
   <i type="int" name="TELESCOPE">     0</i>
   <i type="int" name="TAUPAR">     1</i>
   <i type="int" name="OMEGAPAR">    -1</i>
   <i name="LAMBDA">      1.00000000</i>
  </separator>
  <separator name="External order field" >
   <i name="OFIELD_KAPPA">      0.00000000</i>
   <v name="OFIELD_K">      0.00000000      0.00000000      0.00000000</v>
   <i name="OFIELD_Q6_NEAR">      0.00000000</i>
   <i name="OFIELD_Q6_FAR">      0.00000000</i>
   <i name="OFIELD_A">      0.00000000</i>
  </separator>
 </parameters>
 <atominfo>
  <atoms>     253 </atoms>
  <types>       4 </types>
  <array name="atoms" >
   <dimension dim="1">ion</dimension>
   <field type="string">element</field>
   <field type="int">atomtype</field>
   <set>
    <rc><c>N </c><c>   1</c></rc>
    <rc><c>N </c><c>   1</c></rc>
    <rc><c>N </c><c>   1</c></rc>
    <rc><c>N </c><c>   1</c></rc>
    <rc><c>N </c><c>   1</c></rc>
    <rc><c>N </c><c>   1</c></rc>
    <rc><c>N </c><c>   1</c></rc>
    <rc><c>N </c><c>   1</c></rc>
    <rc><c>N </c><c>   1</c></rc>
    <rc><c>N </c><c>   1</c></rc>
    <rc><c>N </c><c>   1</c></rc>
    <rc><c>N </c><c>   1</c></rc>
    <rc><c>N </c><c>   1</c></rc>
    <rc><c>N </c><c>   1</c></rc>
    <rc><c>N </c><c>   1</c></rc>
    <rc><c>N </c><c>   1</c></rc>
    <rc><c>N </c><c>   1</c></rc>
    <rc><c>N </c><c>   1</c></rc>
    <rc><c>N </c><c>   1</c></rc>
    <rc><c>N </c><c>   1</c></rc>
    <rc><c>N </c><c>   1</c></rc>
    <rc><c>N </c><c>   1</c></rc>
    <rc><c>N </c><c>   1</c></rc>
    <rc><c>N </c><c>   1</c></rc>
    <rc><c>N </c><c>   1</c></rc>
    <rc><c>N </c><c>   1</c></rc>
    <rc><c>N </c><c>   1</c></rc>
    <rc><c>N </c><c>   1</c></rc>
    <rc><c>N </c><c>   1</c></rc>
    <rc><c>N </c><c>   1</c></rc>
    <rc><c>N </c><c>   1</c></rc>
    <rc><c>N </c><c>   1</c></rc>
    <rc><c>N </c><c>   1</c></rc>
    <rc><c>N </c><c>   1</c></rc>
    <rc><c>N </c><c>   1</c></rc>
    <rc><c>N </c><c>   1</c></rc>
    <rc><c>N </c><c>   1</c></rc>
    <rc><c>N </c><c>   1</c></rc>
    <rc><c>N </c><c>   1</c></rc>
    <rc><c>N </c><c>   1</c></rc>
    <rc><c>N </c><c>   1</c></rc>
    <rc><c>N </c><c>   1</c></rc>
    <rc><c>N </c><c>   1</c></rc>
    <rc><c>N </c><c>   1</c></rc>
    <rc><c>N </c><c>   1</c></rc>
    <rc><c>N </c><c>   1</c></rc>
    <rc><c>N </c><c>   1</c></rc>
    <rc><c>N </c><c>   1</c></rc>
    <rc><c>N </c><c>   1</c></rc>
    <rc><c>N </c><c>   1</c></rc>
    <rc><c>N </c><c>   1</c></rc>
    <rc><c>N </c><c>   1</c></rc>
    <rc><c>N </c><c>   1</c></rc>
    <rc><c>N </c><c>   1</c></rc>
    <rc><c>N </c><c>   1</c></rc>
    <rc><c>N </c><c>   1</c></rc>
    <rc><c>N </c><c>   1</c></rc>
    <rc><c>N </c><c>   1</c></rc>
    <rc><c>N </c><c>   1</c></rc>
    <rc><c>N </c><c>   1</c></rc>
    <rc><c>N </c><c>   1</c></rc>
    <rc><c>N </c><c>   1</c></rc>
    <rc><c>N </c><c>   1</c></rc>
    <rc><c>N </c><c>   1</c></rc>
    <rc><c>Nb</c><c>   2</c></rc>
    <rc><c>Ni</c><c>   3</c></rc>
    <rc><c>Ni</c><c>   3</c></rc>
    <rc><c>Ni</c><c>   3</c></rc>
    <rc><c>Ni</c><c>   3</c></rc>
    <rc><c>Ni</c><c>   3</c></rc>
    <rc><c>Ni</c><c>   3</c></rc>
    <rc><c>Ni</c><c>   3</c></rc>
    <rc><c>Ni</c><c>   3</c></rc>
    <rc><c>Ni</c><c>   3</c></rc>
    <rc><c>Ni</c><c>   3</c></rc>
    <rc><c>Ni</c><c>   3</c></rc>
    <rc><c>Ni</c><c>   3</c></rc>
    <rc><c>Ni</c><c>   3</c></rc>
    <rc><c>Ni</c><c>   3</c></rc>
    <rc><c>Ni</c><c>   3</c></rc>
    <rc><c>Ni</c><c>   3</c></rc>
    <rc><c>Ni</c><c>   3</c></rc>
    <rc><c>Ni</c><c>   3</c></rc>
    <rc><c>Ni</c><c>   3</c></rc>
    <rc><c>Ni</c><c>   3</c></rc>
    <rc><c>Ni</c><c>   3</c></rc>
    <rc><c>Ni</c><c>   3</c></rc>
    <rc><c>Ni</c><c>   3</c></rc>
    <rc><c>Ni</c><c>   3</c></rc>
    <rc><c>Ni</c><c>   3</c></rc>
    <rc><c>Ni</c><c>   3</c></rc>
    <rc><c>Ni</c><c>   3</c></rc>
    <rc><c>Ni</c><c>   3</c></rc>
    <rc><c>Ni</c><c>   3</c></rc>
    <rc><c>Ni</c><c>   3</c></rc>
    <rc><c>Ni</c><c>   3</c></rc>
    <rc><c>Ni</c><c>   3</c></rc>
    <rc><c>Ni</c><c>   3</c></rc>
    <rc><c>Ni</c><c>   3</c></rc>
    <rc><c>Ni</c><c>   3</c></rc>
    <rc><c>Ni</c><c>   3</c></rc>
    <rc><c>Ni</c><c>   3</c></rc>
    <rc><c>Ni</c><c>   3</c></rc>
    <rc><c>Ni</c><c>   3</c></rc>
    <rc><c>Ni</c><c>   3</c></rc>
    <rc><c>Ni</c><c>   3</c></rc>
    <rc><c>Ni</c><c>   3</c></rc>
    <rc><c>Ni</c><c>   3</c></rc>
    <rc><c>Ni</c><c>   3</c></rc>
    <rc><c>Ni</c><c>   3</c></rc>
    <rc><c>Ni</c><c>   3</c></rc>
    <rc><c>Ni</c><c>   3</c></rc>
    <rc><c>Ni</c><c>   3</c></rc>
    <rc><c>Ni</c><c>   3</c></rc>
    <rc><c>Ni</c><c>   3</c></rc>
    <rc><c>Ni</c><c>   3</c></rc>
    <rc><c>Ni</c><c>   3</c></rc>
    <rc><c>Ni</c><c>   3</c></rc>
    <rc><c>Ni</c><c>   3</c></rc>
    <rc><c>Ni</c><c>   3</c></rc>
    <rc><c>Ni</c><c>   3</c></rc>
    <rc><c>Ni</c><c>   3</c></rc>
    <rc><c>Ni</c><c>   3</c></rc>
    <rc><c>Ni</c><c>   3</c></rc>
    <rc><c>Ni</c><c>   3</c></rc>
    <rc><c>Ni</c><c>   3</c></rc>
    <rc><c>Ni</c><c>   3</c></rc>
    <rc><c>Ni</c><c>   3</c></rc>
    <rc><c>Ni</c><c>   3</c></rc>
    <rc><c>Ni</c><c>   3</c></rc>
    <rc><c>Ni</c><c>   3</c></rc>
    <rc><c>Ni</c><c>   3</c></rc>
    <rc><c>Ni</c><c>   3</c></rc>
    <rc><c>Ni</c><c>   3</c></rc>
    <rc><c>Ni</c><c>   3</c></rc>
    <rc><c>Ni</c><c>   3</c></rc>
    <rc><c>Ni</c><c>   3</c></rc>
    <rc><c>Ni</c><c>   3</c></rc>
    <rc><c>Ni</c><c>   3</c></rc>
    <rc><c>Ni</c><c>   3</c></rc>
    <rc><c>Ni</c><c>   3</c></rc>
    <rc><c>Ni</c><c>   3</c></rc>
    <rc><c>Ni</c><c>   3</c></rc>
    <rc><c>Ni</c><c>   3</c></rc>
    <rc><c>Ni</c><c>   3</c></rc>
    <rc><c>Ni</c><c>   3</c></rc>
    <rc><c>Ni</c><c>   3</c></rc>
    <rc><c>Ni</c><c>   3</c></rc>
    <rc><c>Ni</c><c>   3</c></rc>
    <rc><c>Ni</c><c>   3</c></rc>
    <rc><c>Ni</c><c>   3</c></rc>
    <rc><c>Ni</c><c>   3</c></rc>
    <rc><c>Ni</c><c>   3</c></rc>
    <rc><c>Ni</c><c>   3</c></rc>
    <rc><c>Ni</c><c>   3</c></rc>
    <rc><c>Ni</c><c>   3</c></rc>
    <rc><c>Ni</c><c>   3</c></rc>
    <rc><c>Ni</c><c>   3</c></rc>
    <rc><c>Ni</c><c>   3</c></rc>
    <rc><c>Ni</c><c>   3</c></rc>
    <rc><c>Ni</c><c>   3</c></rc>
    <rc><c>Ni</c><c>   3</c></rc>
    <rc><c>Ni</c><c>   3</c></rc>
    <rc><c>Ni</c><c>   3</c></rc>
    <rc><c>Ni</c><c>   3</c></rc>
    <rc><c>Ni</c><c>   3</c></rc>
    <rc><c>Ni</c><c>   3</c></rc>
    <rc><c>Ni</c><c>   3</c></rc>
    <rc><c>Ni</c><c>   3</c></rc>
    <rc><c>Ni</c><c>   3</c></rc>
    <rc><c>Ni</c><c>   3</c></rc>
    <rc><c>Ni</c><c>   3</c></rc>
    <rc><c>Ni</c><c>   3</c></rc>
    <rc><c>Ni</c><c>   3</c></rc>
    <rc><c>Ni</c><c>   3</c></rc>
    <rc><c>Ni</c><c>   3</c></rc>
    <rc><c>Ni</c><c>   3</c></rc>
    <rc><c>Ni</c><c>   3</c></rc>
    <rc><c>Ni</c><c>   3</c></rc>
    <rc><c>Ni</c><c>   3</c></rc>
    <rc><c>Ni</c><c>   3</c></rc>
    <rc><c>Ni</c><c>   3</c></rc>
    <rc><c>Ni</c><c>   3</c></rc>
    <rc><c>Ni</c><c>   3</c></rc>
    <rc><c>Ni</c><c>   3</c></rc>
    <rc><c>Ni</c><c>   3</c></rc>
    <rc><c>Ni</c><c>   3</c></rc>
    <rc><c>Ni</c><c>   3</c></rc>
    <rc><c>Ni</c><c>   3</c></rc>
    <rc><c>Ti</c><c>   4</c></rc>
    <rc><c>Ti</c><c>   4</c></rc>
    <rc><c>Ti</c><c>   4</c></rc>
    <rc><c>Ti</c><c>   4</c></rc>
    <rc><c>Ti</c><c>   4</c></rc>
    <rc><c>Ti</c><c>   4</c></rc>
    <rc><c>Ti</c><c>   4</c></rc>
    <rc><c>Ti</c><c>   4</c></rc>
    <rc><c>Ti</c><c>   4</c></rc>
    <rc><c>Ti</c><c>   4</c></rc>
    <rc><c>Ti</c><c>   4</c></rc>
    <rc><c>Ti</c><c>   4</c></rc>
    <rc><c>Ti</c><c>   4</c></rc>
    <rc><c>Ti</c><c>   4</c></rc>
    <rc><c>Ti</c><c>   4</c></rc>
    <rc><c>Ti</c><c>   4</c></rc>
    <rc><c>Ti</c><c>   4</c></rc>
    <rc><c>Ti</c><c>   4</c></rc>
    <rc><c>Ti</c><c>   4</c></rc>
    <rc><c>Ti</c><c>   4</c></rc>
    <rc><c>Ti</c><c>   4</c></rc>
    <rc><c>Ti</c><c>   4</c></rc>
    <rc><c>Ti</c><c>   4</c></rc>
    <rc><c>Ti</c><c>   4</c></rc>
    <rc><c>Ti</c><c>   4</c></rc>
    <rc><c>Ti</c><c>   4</c></rc>
    <rc><c>Ti</c><c>   4</c></rc>
    <rc><c>Ti</c><c>   4</c></rc>
    <rc><c>Ti</c><c>   4</c></rc>
    <rc><c>Ti</c><c>   4</c></rc>
    <rc><c>Ti</c><c>   4</c></rc>
    <rc><c>Ti</c><c>   4</c></rc>
    <rc><c>Ti</c><c>   4</c></rc>
    <rc><c>Ti</c><c>   4</c></rc>
    <rc><c>Ti</c><c>   4</c></rc>
    <rc><c>Ti</c><c>   4</c></rc>
    <rc><c>Ti</c><c>   4</c></rc>
    <rc><c>Ti</c><c>   4</c></rc>
    <rc><c>Ti</c><c>   4</c></rc>
    <rc><c>Ti</c><c>   4</c></rc>
    <rc><c>Ti</c><c>   4</c></rc>
    <rc><c>Ti</c><c>   4</c></rc>
    <rc><c>Ti</c><c>   4</c></rc>
    <rc><c>Ti</c><c>   4</c></rc>
    <rc><c>Ti</c><c>   4</c></rc>
    <rc><c>Ti</c><c>   4</c></rc>
    <rc><c>Ti</c><c>   4</c></rc>
    <rc><c>Ti</c><c>   4</c></rc>
    <rc><c>Ti</c><c>   4</c></rc>
    <rc><c>Ti</c><c>   4</c></rc>
    <rc><c>Ti</c><c>   4</c></rc>
    <rc><c>Ti</c><c>   4</c></rc>
    <rc><c>Ti</c><c>   4</c></rc>
    <rc><c>Ti</c><c>   4</c></rc>
    <rc><c>Ti</c><c>   4</c></rc>
    <rc><c>Ti</c><c>   4</c></rc>
    <rc><c>Ti</c><c>   4</c></rc>
    <rc><c>Ti</c><c>   4</c></rc>
    <rc><c>Ti</c><c>   4</c></rc>
    <rc><c>Ti</c><c>   4</c></rc>
    <rc><c>Ti</c><c>   4</c></rc>
    <rc><c>Ti</c><c>   4</c></rc>
    <rc><c>Ti</c><c>   4</c></rc>
    <rc><c>Ti</c><c>   4</c></rc>
   </set>
  </array>
  <array name="atomtypes" >
   <dimension dim="1">type</dimension>
   <field type="int">atomspertype</field>
   <field type="string">element</field>
   <field>mass</field>
   <field>valence</field>
   <field type="string">pseudopotential</field>
   <set>
    <rc><c>  64</c><c>N </c><c>     14.00100000</c><c>      5.00000000</c><c>  PAW_PBE N 08Apr2002                   </c></rc>
    <rc><c>   1</c><c>Nb</c><c>     92.91000000</c><c>     13.00000000</c><c>  PAW_PBE Nb_sv 25May2007               </c></rc>
    <rc><c> 124</c><c>Ni</c><c>     58.69000000</c><c>     10.00000000</c><c>  PAW_PBE Ni 02Aug2007                  </c></rc>
    <rc><c>  64</c><c>Ti</c><c>     47.88000000</c><c>     12.00000000</c><c>  PAW_PBE Ti_sv 26Sep2005               </c></rc>
   </set>
  </array>
 </atominfo>
 <structure name="initialpos" >
  <crystal>
   <varray name="basis" >
    <v>      12.22300000       0.00000000       0.00000000 </v>
    <v>       6.09300000      10.55338557       0.00000000 </v>
    <v>       0.00000000       0.00000000      34.98440085 </v>
   </varray>
   <i name="volume">   4512.77891652 </i>
   <varray name="rec_basis" >
    <v>       0.08181298      -0.04723474       0.00000000 </v>
    <v>       0.00000000       0.09475632       0.00000000 </v>
    <v>       0.00000000       0.00000000       0.02858417 </v>
   </varray>
  </crystal>
  <varray name="positions" >
   <v>       0.12500000       0.12500000       0.05267780 </v>
   <v>       0.04166667       0.04166667       0.12291490 </v>
   <v>       0.20870870       0.20853306       0.19094453 </v>
   <v>       0.12481058       0.12469296       0.25407892 </v>
   <v>       0.12500000       0.37500000       0.05267780 </v>
   <v>       0.04166667       0.29166667       0.12291490 </v>
   <v>       0.20819216       0.45946713       0.19186577 </v>
   <v>       0.12524656       0.37546978       0.25505450 </v>
   <v>       0.12500000       0.62500000       0.05267780 </v>
   <v>       0.04166667       0.54166667       0.12291490 </v>
   <v>       0.20801729       0.70810040       0.19197842 </v>
   <v>       0.12571194       0.62604775       0.25921771 </v>
   <v>       0.12500000       0.87500000       0.05267780 </v>
   <v>       0.04166667       0.79166667       0.12291490 </v>
   <v>       0.20829970       0.95707845       0.19148025 </v>
   <v>       0.12553062       0.87149407       0.25749567 </v>
   <v>       0.37500000       0.12500000       0.05267780 </v>
   <v>       0.29166667       0.04166667       0.12291490 </v>
   <v>       0.45955620       0.20811052       0.19188503 </v>
   <v>       0.37568177       0.12506511       0.25507633 </v>
   <v>       0.37500000       0.37500000       0.05267780 </v>
   <v>       0.29166667       0.29166667       0.12291490 </v>
   <v>       0.45846480       0.45840245       0.19191367 </v>
   <v>       0.37735775       0.37734777       0.25881746 </v>
   <v>       0.37500000       0.62500000       0.05267780 </v>
   <v>       0.29166667       0.54166667       0.12291490 </v>
   <v>       0.45881482       0.70772743       0.19192968 </v>
   <v>       0.37762273       0.62187676       0.26061920 </v>
   <v>       0.37500000       0.87500000       0.05267780 </v>
   <v>       0.29166667       0.79166667       0.12291490 </v>
   <v>       0.46012190       0.95726704       0.19169100 </v>
   <v>       0.37653961       0.87265404       0.25631817 </v>
   <v>       0.62500000       0.12500000       0.05267780 </v>
   <v>       0.54166667       0.04166667       0.12291490 </v>
   <v>       0.70808112       0.20799032       0.19201220 </v>
   <v>       0.62624145       0.12548427       0.25931233 </v>
   <v>       0.62500000       0.37500000       0.05267780 </v>
   <v>       0.54166667       0.29166667       0.12291490 </v>
   <v>       0.70770031       0.45878401       0.19194814 </v>
   <v>       0.62180658       0.37759620       0.26063944 </v>
   <v>       0.62500000       0.62500000       0.05267780 </v>
   <v>       0.54166667       0.54166667       0.12291490 </v>
   <v>       0.70862748       0.70861644       0.19203722 </v>
   <v>       0.62394440       0.62401335       0.25985814 </v>
   <v>       0.62500000       0.87500000       0.05267780 </v>
   <v>       0.54166667       0.79166667       0.12291490 </v>
   <v>       0.70899146       0.95771839       0.19215714 </v>
   <v>       0.62815325       0.87264861       0.25926553 </v>
   <v>       0.87500000       0.12500000       0.05267780 </v>
   <v>       0.79166667       0.04166667       0.12291490 </v>
   <v>       0.95713527       0.20820963       0.19148899 </v>
   <v>       0.87171433       0.12536962       0.25747349 </v>
   <v>       0.87500000       0.37500000       0.05267780 </v>
   <v>       0.79166667       0.29166667       0.12291490 </v>
   <v>       0.95732639       0.45999635       0.19169854 </v>
   <v>       0.87268831       0.37643565       0.25628185 </v>
   <v>       0.87500000       0.62500000       0.05267780 </v>
   <v>       0.79166667       0.54166667       0.12291490 </v>
   <v>       0.95775252       0.70893897       0.19215756 </v>
   <v>       0.87270898       0.62804115       0.25923384 </v>
   <v>       0.87500000       0.87500000       0.05267780 </v>
   <v>       0.79166667       0.79166667       0.12291490 </v>
   <v>       0.95760913       0.95757080       0.19203712 </v>
   <v>       0.87411307       0.87405244       0.26070798 </v>
   <v>       0.33417468       0.73161217       0.30538741 </v>
   <v>       0.93178374       0.13349231       0.30564997 </v>
   <v>       0.99944391       0.99971310       0.36349844 </v>
   <v>       0.06651397       0.06650569       0.42209293 </v>
   <v>       0.93333333       0.13333333       0.48055316 </v>
   <v>       0.00000000       0.00000000       0.53861099 </v>
   <v>       0.93074121       0.33525541       0.30597641 </v>
   <v>       0.99958173       0.20011322       0.36376266 </v>
   <v>       0.06667385       0.26678292       0.42213627 </v>
   <v>       0.93333333       0.33333333       0.48055316 </v>
   <v>       0.00000000       0.20000000       0.53861099 </v>
   <v>       0.93271196       0.53443385       0.30513521 </v>
   <v>       0.99960621       0.40071957       0.36377230 </v>
   <v>       0.06653174       0.46718419       0.42203090 </v>
   <v>       0.93333333       0.53333333       0.48055316 </v>
   <v>       0.00000000       0.40000000       0.53861099 </v>
   <v>       0.93301867       0.73417199       0.30228113 </v>
   <v>       0.99963355       0.60087932       0.36313259 </v>
   <v>       0.06670827       0.66684656       0.42159350 </v>
   <v>       0.93333333       0.73333333       0.48055316 </v>
   <v>       0.00000000       0.60000000       0.53861099 </v>
   <v>       0.93270801       0.93332446       0.30417311 </v>
   <v>       0.00022053       0.79945209       0.36235289 </v>
   <v>       0.06639535       0.86648229       0.42176956 </v>
   <v>       0.93333333       0.93333333       0.48055316 </v>
   <v>       0.00000000       0.80000000       0.53861099 </v>
   <v>       0.13270657       0.13343257       0.30602235 </v>
   <v>       0.19984956       0.99985152       0.36374804 </v>
   <v>       0.26680756       0.06667651       0.42211878 </v>
   <v>       0.13333333       0.13333333       0.48055316 </v>
   <v>       0.20000000       0.00000000       0.53861099 </v>
   <v>       0.13280104       0.33555514       0.30591787 </v>
   <v>       0.20001473       0.20025207       0.36374669 </v>
   <v>       0.26677343       0.26683050       0.42210953 </v>
   <v>       0.13333333       0.33333333       0.48055316 </v>
   <v>       0.20000000       0.20000000       0.53861099 </v>
   <v>       0.13317061       0.53505255       0.30490669 </v>
   <v>       0.19982121       0.40084625       0.36375757 </v>
   <v>       0.26670578       0.46699836       0.42187170 </v>
   <v>       0.13333333       0.53333333       0.48055316 </v>
   <v>       0.20000000       0.40000000       0.53861099 </v>
   <v>       0.13403359       0.73324888       0.30187136 </v>
   <v>       0.20044628       0.60053772       0.36276426 </v>
   <v>       0.26652516       0.66670731       0.42181893 </v>
   <v>       0.13333333       0.73333333       0.48055316 </v>
   <v>       0.20000000       0.60000000       0.53861099 </v>
   <v>       0.13279937       0.93258315       0.30563638 </v>
   <v>       0.19974693       0.79957633       0.36325907 </v>
   <v>       0.26668026       0.86650152       0.42196575 </v>
   <v>       0.13333333       0.93333333       0.48055316 </v>
   <v>       0.20000000       0.80000000       0.53861099 </v>
   <v>       0.33500722       0.13339409       0.30589056 </v>
   <v>       0.40052287       0.99982139       0.36374914 </v>
   <v>       0.46711216       0.06659457       0.42202855 </v>
   <v>       0.33333333       0.13333333       0.48055316 </v>
   <v>       0.40000000       0.00000000       0.53861099 </v>
   <v>       0.33408638       0.33459402       0.30605409 </v>
   <v>       0.40059006       0.20004043       0.36375892 </v>
   <v>       0.46688017       0.26679217       0.42188423 </v>
   <v>       0.33333333       0.33333333       0.48055316 </v>
   <v>       0.40000000       0.20000000       0.53861099 </v>
   <v>       0.33458144       0.53341790       0.30317454 </v>
   <v>       0.40030186       0.40056674       0.36337154 </v>
   <v>       0.46653364       0.46672548       0.42199963 </v>
   <v>       0.33333333       0.53333333       0.48055316 </v>
   <v>       0.40000000       0.40000000       0.53861099 </v>
   <v>       0.40035442       0.59957822       0.36347774 </v>
   <v>       0.46675747       0.66663257       0.42195860 </v>
   <v>       0.33333333       0.73333333       0.48055316 </v>
   <v>       0.40000000       0.60000000       0.53861099 </v>
   <v>       0.33459613       0.93151983       0.30595590 </v>
   <v>       0.40037362       0.79958857       0.36361517 </v>
   <v>       0.46720744       0.86644799       0.42190234 </v>
   <v>       0.33333333       0.93333333       0.48055316 </v>
   <v>       0.40000000       0.80000000       0.53861099 </v>
   <v>       0.53460191       0.13363278       0.30490681 </v>
   <v>       0.60067579       0.99980229       0.36312801 </v>
   <v>       0.66682035       0.06672409       0.42162149 </v>
   <v>       0.53333333       0.13333333       0.48055316 </v>
   <v>       0.60000000       0.00000000       0.53861099 </v>
   <v>       0.53295113       0.33500036       0.30321690 </v>
   <v>       0.60026967       0.20058729       0.36283811 </v>
   <v>       0.66650576       0.26667887       0.42184457 </v>
   <v>       0.53333333       0.33333333       0.48055316 </v>
   <v>       0.60000000       0.20000000       0.53861099 </v>
   <v>       0.53253647       0.53314388       0.30301365 </v>
   <v>       0.59930660       0.40061254       0.36351392 </v>
   <v>       0.66650826       0.46682412       0.42197295 </v>
   <v>       0.53333333       0.53333333       0.48055316 </v>
   <v>       0.60000000       0.40000000       0.53861099 </v>
   <v>       0.53352418       0.73197229       0.30418220 </v>
   <v>       0.59964530       0.59991130       0.36325464 </v>
   <v>       0.66674820       0.66678553       0.42163387 </v>
   <v>       0.53333333       0.73333333       0.48055316 </v>
   <v>       0.60000000       0.60000000       0.53861099 </v>
   <v>       0.53398476       0.93326264       0.30507176 </v>
   <v>       0.60072601       0.79941775       0.36271335 </v>
   <v>       0.66711459       0.86648937       0.42151484 </v>
   <v>       0.53333333       0.93333333       0.48055316 </v>
   <v>       0.60000000       0.80000000       0.53861099 </v>
   <v>       0.73261246       0.13447413       0.30204470 </v>
   <v>       0.79928535       0.00038605       0.36240525 </v>
   <v>       0.86640597       0.06645606       0.42178978 </v>
   <v>       0.73333333       0.13333333       0.48055316 </v>
   <v>       0.80000000       0.00000000       0.53861099 </v>
   <v>       0.73088385       0.33478196       0.30542666 </v>
   <v>       0.79927489       0.19999808       0.36330752 </v>
   <v>       0.86642433       0.26666351       0.42199300 </v>
   <v>       0.73333333       0.33333333       0.48055316 </v>
   <v>       0.80000000       0.20000000       0.53861099 </v>
   <v>       0.73121795       0.53422160       0.30425176 </v>
   <v>       0.79932971       0.40055919       0.36363754 </v>
   <v>       0.86638229       0.46717875       0.42192206 </v>
   <v>       0.73333333       0.53333333       0.48055316 </v>
   <v>       0.80000000       0.40000000       0.53861099 </v>
   <v>       0.73298540       0.73346592       0.30046492 </v>
   <v>       0.79920871       0.60089925       0.36274147 </v>
   <v>       0.86639810       0.66717868       0.42152339 </v>
   <v>       0.73333333       0.73333333       0.48055316 </v>
   <v>       0.80000000       0.60000000       0.53861099 </v>
   <v>       0.73375237       0.93348579       0.30234488 </v>
   <v>       0.79971156       0.79985446       0.36180833 </v>
   <v>       0.86661392       0.86660140       0.42123752 </v>
   <v>       0.73333333       0.93333333       0.48055316 </v>
   <v>       0.80000000       0.80000000       0.53861099 </v>
   <v>       0.04166667       0.04166667       0.01755925 </v>
   <v>       0.20833333       0.20833333       0.08779635 </v>
   <v>       0.12477360       0.12465271       0.15807213 </v>
   <v>       0.04014937       0.04061493       0.23016200 </v>
   <v>       0.04166667       0.29166667       0.01755925 </v>
   <v>       0.20833333       0.45833333       0.08779635 </v>
   <v>       0.12504966       0.37568338       0.15815591 </v>
   <v>       0.03984427       0.29306578       0.22963533 </v>
   <v>       0.04166667       0.54166667       0.01755925 </v>
   <v>       0.20833333       0.70833333       0.08779635 </v>
   <v>       0.12482888       0.62528242       0.15807461 </v>
   <v>       0.04098394       0.54347504       0.23026780 </v>
   <v>       0.04166667       0.79166667       0.01755925 </v>
   <v>       0.20833333       0.95833333       0.08779635 </v>
   <v>       0.12509189       0.87425959       0.15815789 </v>
   <v>       0.04123378       0.79138276       0.22950516 </v>
   <v>       0.29166667       0.04166667       0.01755925 </v>
   <v>       0.45833333       0.20833333       0.08779635 </v>
   <v>       0.37578753       0.12497227       0.15815783 </v>
   <v>       0.29253856       0.04042623       0.22960350 </v>
   <v>       0.29166667       0.29166667       0.01755925 </v>
   <v>       0.45833333       0.45833333       0.08779635 </v>
   <v>       0.37553813       0.37545972       0.15805593 </v>
   <v>       0.29299790       0.29333456       0.22963852 </v>
   <v>       0.29166667       0.54166667       0.01755925 </v>
   <v>       0.45833333       0.70833333       0.08779635 </v>
   <v>       0.37520211       0.62460867       0.15804914 </v>
   <v>       0.29253812       0.54174837       0.22824422 </v>
   <v>       0.29166667       0.79166667       0.01755925 </v>
   <v>       0.45833333       0.95833333       0.08779635 </v>
   <v>       0.37570238       0.87379826       0.15810264 </v>
   <v>       0.29269236       0.78965036       0.22916482 </v>
   <v>       0.54166667       0.04166667       0.01755925 </v>
   <v>       0.70833333       0.20833333       0.08779635 </v>
   <v>       0.62532147       0.12475090       0.15808358 </v>
   <v>       0.54306173       0.04140694       0.23023687 </v>
   <v>       0.54166667       0.29166667       0.01755925 </v>
   <v>       0.70833333       0.45833333       0.08779635 </v>
   <v>       0.62460767       0.37516586       0.15805870 </v>
   <v>       0.54145682       0.29277799       0.22828488 </v>
   <v>       0.54166667       0.54166667       0.01755925 </v>
   <v>       0.70833333       0.70833333       0.08779635 </v>
   <v>       0.62498180       0.62498693       0.15803821 </v>
   <v>       0.54134688       0.54165398       0.22766191 </v>
   <v>       0.54166667       0.79166667       0.01755925 </v>
   <v>       0.70833333       0.95833333       0.08779635 </v>
   <v>       0.62542896       0.87474373       0.15807674 </v>
   <v>       0.54207937       0.79035117       0.22929992 </v>
   <v>       0.79166667       0.04166667       0.01755925 </v>
   <v>       0.95833333       0.20833333       0.08779635 </v>
   <v>       0.87427549       0.12502553       0.15817597 </v>
   <v>       0.79095723       0.04164343       0.22955028 </v>
   <v>       0.79166667       0.29166667       0.01755925 </v>
   <v>       0.95833333       0.45833333       0.08779635 </v>
   <v>       0.87378137       0.37565326       0.15812059 </v>
   <v>       0.78918157       0.29304949       0.22919854 </v>
   <v>       0.79166667       0.54166667       0.01755925 </v>
   <v>       0.95833333       0.70833333       0.08779635 </v>
   <v>       0.87482093       0.62537516       0.15808527 </v>
   <v>       0.78983663       0.54255716       0.22931805 </v>
   <v>       0.79166667       0.79166667       0.01755925 </v>
   <v>       0.95833333       0.95833333       0.08779635 </v>
   <v>       0.87488676       0.87488767       0.15789950 </v>
   <v>       0.79170044       0.79214028       0.22970093 </v>
  </varray>
  <varray name="selective"  type="logical" >
   <v type="logical" >  F  F  F </v>
   <v type="logical" >  F  F  F </v>
   <v type="logical" >  T  T  T </v>
   <v type="logical" >  T  T  T </v>
   <v type="logical" >  F  F  F </v>
   <v type="logical" >  F  F  F </v>
   <v type="logical" >  T  T  T </v>
   <v type="logical" >  T  T  T </v>
   <v type="logical" >  F  F  F </v>
   <v type="logical" >  F  F  F </v>
   <v type="logical" >  T  T  T </v>
   <v type="logical" >  T  T  T </v>
   <v type="logical" >  F  F  F </v>
   <v type="logical" >  F  F  F </v>
   <v type="logical" >  T  T  T </v>
   <v type="logical" >  T  T  T </v>
   <v type="logical" >  F  F  F </v>
   <v type="logical" >  F  F  F </v>
   <v type="logical" >  T  T  T </v>
   <v type="logical" >  T  T  T </v>
   <v type="logical" >  F  F  F </v>
   <v type="logical" >  F  F  F </v>
   <v type="logical" >  T  T  T </v>
   <v type="logical" >  T  T  T </v>
   <v type="logical" >  F  F  F </v>
   <v type="logical" >  F  F  F </v>
   <v type="logical" >  T  T  T </v>
   <v type="logical" >  T  T  T </v>
   <v type="logical" >  F  F  F </v>
   <v type="logical" >  F  F  F </v>
   <v type="logical" >  T  T  T </v>
   <v type="logical" >  T  T  T </v>
   <v type="logical" >  F  F  F </v>
   <v type="logical" >  F  F  F </v>
   <v type="logical" >  T  T  T </v>
   <v type="logical" >  T  T  T </v>
   <v type="logical" >  F  F  F </v>
   <v type="logical" >  F  F  F </v>
   <v type="logical" >  T  T  T </v>
   <v type="logical" >  T  T  T </v>
   <v type="logical" >  F  F  F </v>
   <v type="logical" >  F  F  F </v>
   <v type="logical" >  T  T  T </v>
   <v type="logical" >  T  T  T </v>
   <v type="logical" >  F  F  F </v>
   <v type="logical" >  F  F  F </v>
   <v type="logical" >  T  T  T </v>
   <v type="logical" >  T  T  T </v>
   <v type="logical" >  F  F  F </v>
   <v type="logical" >  F  F  F </v>
   <v type="logical" >  T  T  T </v>
   <v type="logical" >  T  T  T </v>
   <v type="logical" >  F  F  F </v>
   <v type="logical" >  F  F  F </v>
   <v type="logical" >  T  T  T </v>
   <v type="logical" >  T  T  T </v>
   <v type="logical" >  F  F  F </v>
   <v type="logical" >  F  F  F </v>
   <v type="logical" >  T  T  T </v>
   <v type="logical" >  T  T  T </v>
   <v type="logical" >  F  F  F </v>
   <v type="logical" >  F  F  F </v>
   <v type="logical" >  T  T  T </v>
   <v type="logical" >  T  T  T </v>
   <v type="logical" >  T  T  T </v>
   <v type="logical" >  T  T  T </v>
   <v type="logical" >  T  T  T </v>
   <v type="logical" >  T  T  T </v>
   <v type="logical" >  F  F  F </v>
   <v type="logical" >  F  F  F </v>
   <v type="logical" >  T  T  T </v>
   <v type="logical" >  T  T  T </v>
   <v type="logical" >  T  T  T </v>
   <v type="logical" >  F  F  F </v>
   <v type="logical" >  F  F  F </v>
   <v type="logical" >  T  T  T </v>
   <v type="logical" >  T  T  T </v>
   <v type="logical" >  T  T  T </v>
   <v type="logical" >  F  F  F </v>
   <v type="logical" >  F  F  F </v>
   <v type="logical" >  T  T  T </v>
   <v type="logical" >  T  T  T </v>
   <v type="logical" >  T  T  T </v>
   <v type="logical" >  F  F  F </v>
   <v type="logical" >  F  F  F </v>
   <v type="logical" >  T  T  T </v>
   <v type="logical" >  T  T  T </v>
   <v type="logical" >  T  T  T </v>
   <v type="logical" >  F  F  F </v>
   <v type="logical" >  F  F  F </v>
   <v type="logical" >  T  T  T </v>
   <v type="logical" >  T  T  T </v>
   <v type="logical" >  T  T  T </v>
   <v type="logical" >  F  F  F </v>
   <v type="logical" >  F  F  F </v>
   <v type="logical" >  T  T  T </v>
   <v type="logical" >  T  T  T </v>
   <v type="logical" >  T  T  T </v>
   <v type="logical" >  F  F  F </v>
   <v type="logical" >  F  F  F </v>
   <v type="logical" >  T  T  T </v>
   <v type="logical" >  T  T  T </v>
   <v type="logical" >  T  T  T </v>
   <v type="logical" >  F  F  F </v>
   <v type="logical" >  F  F  F </v>
   <v type="logical" >  T  T  T </v>
   <v type="logical" >  T  T  T </v>
   <v type="logical" >  T  T  T </v>
   <v type="logical" >  F  F  F </v>
   <v type="logical" >  F  F  F </v>
   <v type="logical" >  T  T  T </v>
   <v type="logical" >  T  T  T </v>
   <v type="logical" >  T  T  T </v>
   <v type="logical" >  F  F  F </v>
   <v type="logical" >  F  F  F </v>
   <v type="logical" >  T  T  T </v>
   <v type="logical" >  T  T  T </v>
   <v type="logical" >  T  T  T </v>
   <v type="logical" >  F  F  F </v>
   <v type="logical" >  F  F  F </v>
   <v type="logical" >  T  T  T </v>
   <v type="logical" >  T  T  T </v>
   <v type="logical" >  T  T  T </v>
   <v type="logical" >  F  F  F </v>
   <v type="logical" >  F  F  F </v>
   <v type="logical" >  T  T  T </v>
   <v type="logical" >  T  T  T </v>
   <v type="logical" >  T  T  T </v>
   <v type="logical" >  F  F  F </v>
   <v type="logical" >  F  F  F </v>
   <v type="logical" >  T  T  T </v>
   <v type="logical" >  T  T  T </v>
   <v type="logical" >  F  F  F </v>
   <v type="logical" >  F  F  F </v>
   <v type="logical" >  T  T  T </v>
   <v type="logical" >  T  T  T </v>
   <v type="logical" >  T  T  T </v>
   <v type="logical" >  F  F  F </v>
   <v type="logical" >  F  F  F </v>
   <v type="logical" >  T  T  T </v>
   <v type="logical" >  T  T  T </v>
   <v type="logical" >  T  T  T </v>
   <v type="logical" >  F  F  F </v>
   <v type="logical" >  F  F  F </v>
   <v type="logical" >  T  T  T </v>
   <v type="logical" >  T  T  T </v>
   <v type="logical" >  T  T  T </v>
   <v type="logical" >  F  F  F </v>
   <v type="logical" >  F  F  F </v>
   <v type="logical" >  T  T  T </v>
   <v type="logical" >  T  T  T </v>
   <v type="logical" >  T  T  T </v>
   <v type="logical" >  F  F  F </v>
   <v type="logical" >  F  F  F </v>
   <v type="logical" >  T  T  T </v>
   <v type="logical" >  T  T  T </v>
   <v type="logical" >  T  T  T </v>
   <v type="logical" >  F  F  F </v>
   <v type="logical" >  F  F  F </v>
   <v type="logical" >  T  T  T </v>
   <v type="logical" >  T  T  T </v>
   <v type="logical" >  T  T  T </v>
   <v type="logical" >  F  F  F </v>
   <v type="logical" >  F  F  F </v>
   <v type="logical" >  T  T  T </v>
   <v type="logical" >  T  T  T </v>
   <v type="logical" >  T  T  T </v>
   <v type="logical" >  F  F  F </v>
   <v type="logical" >  F  F  F </v>
   <v type="logical" >  T  T  T </v>
   <v type="logical" >  T  T  T </v>
   <v type="logical" >  T  T  T </v>
   <v type="logical" >  F  F  F </v>
   <v type="logical" >  F  F  F </v>
   <v type="logical" >  T  T  T </v>
   <v type="logical" >  T  T  T </v>
   <v type="logical" >  T  T  T </v>
   <v type="logical" >  F  F  F </v>
   <v type="logical" >  F  F  F </v>
   <v type="logical" >  T  T  T </v>
   <v type="logical" >  T  T  T </v>
   <v type="logical" >  T  T  T </v>
   <v type="logical" >  F  F  F </v>
   <v type="logical" >  F  F  F </v>
   <v type="logical" >  T  T  T </v>
   <v type="logical" >  T  T  T </v>
   <v type="logical" >  T  T  T </v>
   <v type="logical" >  F  F  F </v>
   <v type="logical" >  F  F  F </v>
   <v type="logical" >  F  F  F </v>
   <v type="logical" >  F  F  F </v>
   <v type="logical" >  T  T  T </v>
   <v type="logical" >  T  T  T </v>
   <v type="logical" >  F  F  F </v>
   <v type="logical" >  F  F  F </v>
   <v type="logical" >  T  T  T </v>
   <v type="logical" >  T  T  T </v>
   <v type="logical" >  F  F  F </v>
   <v type="logical" >  F  F  F </v>
   <v type="logical" >  T  T  T </v>
   <v type="logical" >  T  T  T </v>
   <v type="logical" >  F  F  F </v>
   <v type="logical" >  F  F  F </v>
   <v type="logical" >  T  T  T </v>
   <v type="logical" >  T  T  T </v>
   <v type="logical" >  F  F  F </v>
   <v type="logical" >  F  F  F </v>
   <v type="logical" >  T  T  T </v>
   <v type="logical" >  T  T  T </v>
   <v type="logical" >  F  F  F </v>
   <v type="logical" >  F  F  F </v>
   <v type="logical" >  T  T  T </v>
   <v type="logical" >  T  T  T </v>
   <v type="logical" >  F  F  F </v>
   <v type="logical" >  F  F  F </v>
   <v type="logical" >  T  T  T </v>
   <v type="logical" >  T  T  T </v>
   <v type="logical" >  F  F  F </v>
   <v type="logical" >  F  F  F </v>
   <v type="logical" >  T  T  T </v>
   <v type="logical" >  T  T  T </v>
   <v type="logical" >  F  F  F </v>
   <v type="logical" >  F  F  F </v>
   <v type="logical" >  T  T  T </v>
   <v type="logical" >  T  T  T </v>
   <v type="logical" >  F  F  F </v>
   <v type="logical" >  F  F  F </v>
   <v type="logical" >  T  T  T </v>
   <v type="logical" >  T  T  T </v>
   <v type="logical" >  F  F  F </v>
   <v type="logical" >  F  F  F </v>
   <v type="logical" >  T  T  T </v>
   <v type="logical" >  T  T  T </v>
   <v type="logical" >  F  F  F </v>
   <v type="logical" >  F  F  F </v>
   <v type="logical" >  T  T  T </v>
   <v type="logical" >  T  T  T </v>
   <v type="logical" >  F  F  F </v>
   <v type="logical" >  F  F  F </v>
   <v type="logical" >  T  T  T </v>
   <v type="logical" >  T  T  T </v>
   <v type="logical" >  F  F  F </v>
   <v type="logical" >  F  F  F </v>
   <v type="logical" >  T  T  T </v>
   <v type="logical" >  T  T  T </v>
   <v type="logical" >  F  F  F </v>
   <v type="logical" >  F  F  F </v>
   <v type="logical" >  T  T  T </v>
   <v type="logical" >  T  T  T </v>
   <v type="logical" >  F  F  F </v>
   <v type="logical" >  F  F  F </v>
   <v type="logical" >  T  T  T </v>
   <v type="logical" >  T  T  T </v>
  </varray>
  <nose>
   <v>      -3.00000000       0.00000000       0.00010000       0.00010000 </v>
  </nose>
 </structure>
 <calculation>
  <scstep>
   <time name="dav">   44.06   44.58</time>
   <time name="total">   44.42   44.94</time>
   <energy>
    <i name="alphaZ">   6806.08464712 </i>
    <i name="ewald">1834731.68838615 </i>
    <i name="hartreedc">**************** </i>
    <i name="XCdc">   9248.29287136 </i>
    <i name="pawpsdc"> 214684.27959983 </i>
    <i name="pawaedc">-221777.10816574 </i>
    <i name="eentropy">     -5.90993111 </i>
    <i name="bandstr">  14419.86231164 </i>
    <i name="atom"> 253753.03137376 </i>
    <i name="e_fr_energy">  29636.26717282 </i>
    <i name="e_wo_entrp">  29642.17710393 </i>
    <i name="e_0_energy">  29639.22213838 </i>
   </energy>
  </scstep>
  <scstep>
   <time name="dav">   43.53   43.80</time>
   <time name="total">   43.53   43.80</time>
   <energy>
    <i name="e_fr_energy">   3951.19288986 </i>
    <i name="e_wo_entrp">   3965.61270962 </i>
    <i name="e_0_energy">   3958.40279974 </i>
   </energy>
  </scstep>
  <scstep>
   <time name="dav">   52.09   52.55</time>
   <time name="total">   52.09   52.55</time>
   <energy>
    <i name="e_fr_energy">  -1195.09707778 </i>
    <i name="e_wo_entrp">  -1162.03997376 </i>
    <i name="e_0_energy">  -1178.56852577 </i>
   </energy>
  </scstep>
  <scstep>
   <time name="dav">   61.79   62.27</time>
   <time name="total">   61.80   62.28</time>
   <energy>
    <i name="e_fr_energy">  -2260.37135373 </i>
    <i name="e_wo_entrp">  -2219.12092346 </i>
    <i name="e_0_energy">  -2239.74613860 </i>
   </energy>
  </scstep>
  <scstep>
   <time name="dav">   65.14   65.64</time>
   <time name="total">   66.59   67.10</time>
   <energy>
    <i name="e_fr_energy">  -2373.98256821 </i>
    <i name="e_wo_entrp">  -2331.53171265 </i>
    <i name="e_0_energy">  -2352.75714043 </i>
   </energy>
  </scstep>
  <scstep>
   <time name="dav">   65.86   66.56</time>
   <time name="total">   67.57   68.27</time>
   <energy>
    <i name="e_fr_energy">  -9589.02747281 </i>
    <i name="e_wo_entrp">  -9580.39991936 </i>
    <i name="e_0_energy">  -9584.71369608 </i>
   </energy>
  </scstep>
  <scstep>
   <time name="dav">   49.42   49.70</time>
   <time name="total">   51.22   51.51</time>
   <energy>
    <i name="e_fr_energy">  -7341.06361877 </i>
    <i name="e_wo_entrp">  -7332.19091452 </i>
    <i name="e_0_energy">  -7336.62726665 </i>
   </energy>
  </scstep>
  <scstep>
   <time name="dav">   69.06   69.82</time>
   <time name="total">   70.83   71.60</time>
   <energy>
    <i name="e_fr_energy">  -8778.45720459 </i>
    <i name="e_wo_entrp">  -8762.73006125 </i>
    <i name="e_0_energy">  -8770.59363292 </i>
   </energy>
  </scstep>
  <scstep>
   <time name="dav">   57.60   58.09</time>
   <time name="total">   59.42   59.91</time>
   <energy>
    <i name="e_fr_energy">  -5794.62960328 </i>
    <i name="e_wo_entrp">  -5762.72912170 </i>
    <i name="e_0_energy">  -5778.67936249 </i>
   </energy>
  </scstep>
  <scstep>
   <time name="dav">   66.14   66.66</time>
   <time name="total">   67.94   68.46</time>
   <energy>
    <i name="e_fr_energy">  -2346.24739335 </i>
    <i name="e_wo_entrp">  -2318.50190257 </i>
    <i name="e_0_energy">  -2332.37464796 </i>
   </energy>
  </scstep>
  <scstep>
