 vasp.5.4.4.18Apr17-6-g9f103f2a35 (build Feb 19 2020 16:12:31) complex          
  
 executed on             LinuxIFC date 2023.07.25  11:30:27
 running on  120 total cores
 distrk:  each k-point on  120 cores,    1 groups
 distr:  one band on NCORES_PER_BAND=   8 cores,   15 groups


--------------------------------------------------------------------------------------------------------


 INCAR:
 POTCAR:    PAW_PBE N 08Apr2002                   
 POTCAR:    PAW_PBE Nb_sv 25May2007               
 POTCAR:    PAW_PBE Ni 02Aug2007                  
 POTCAR:    PAW_PBE Ti_sv 26Sep2005               
 POTCAR:    PAW_PBE N 08Apr2002                   
   VRHFIN =N: s2p3                                                              
   LEXCH  = PE                                                                  
   EATOM  =   264.5486 eV,   19.4438 Ry                                         
                                                                                
   TITEL  = PAW_PBE N 08Apr2002                                                 
   LULTRA =        F    use ultrasoft PP ?                                      
   IUNSCR =        1    unscreen: 0-lin 1-nonlin 2-no                           
   RPACOR =    1.200    partial core radius                                     
   POMASS =   14.001; ZVAL   =    5.000    mass and valenz                      
   RCORE  =    1.500    outmost cutoff radius                                   
   RWIGS  =    1.400; RWIGS  =    0.741    wigner-seitz radius (au A)           
   ENMAX  =  400.000; ENMIN  =  300.000 eV                                      
   ICORE  =        2    local potential                                         
   LCOR   =        T    correct aug charges                                     
   LPAW   =        T    paw PP                                                  
   EAUG   =  627.112                                                            
   DEXC   =    0.000                                                            
   RMAX   =    1.529    core radius for proj-oper                               
   RAUG   =    1.300    factor for augmentation sphere                          
   RDEP   =    1.514    radius for radial grids                                 
   RDEPT  =    1.338    core radius for aug-charge                              
                                                                                
   Atomic configuration                                                         
    4 entries                                                                   
     n  l   j            E        occ.                                          
     1  0  0.50      -384.7179   2.0000                                         
     2  0  0.50       -18.5828   2.0000                                         
     2  1  0.50        -7.0898   3.0000                                         
     3  2  1.50        -6.8029   0.0000                                         
   Description                                                                  
     l       E           TYP  RCUT    TYP  RCUT                                 
     0    -18.5828119     23  1.200                                             
     0    -13.5018863     23  1.200                                             
     1     -7.0897853     23  1.500                                             
     1      9.5240782     23  1.500                                             
     2     -6.8029130      7  1.500                                             
  local pseudopotential read in
  partial core-charges read in
  partial kinetic energy density read in
  atomic valenz-charges read in
  non local Contribution for L=           0  read in
    real space projection operators read in
  non local Contribution for L=           0  read in
    real space projection operators read in
  non local Contribution for L=           1  read in
    real space projection operators read in
  non local Contribution for L=           1  read in
    real space projection operators read in
    PAW grid and wavefunctions read in
 
   number of l-projection  operators is LMAX  =           4
   number of lm-projection operators is LMMAX =           8
 
 POTCAR:    PAW_PBE Nb_sv 25May2007               
   VRHFIN =Nb: 4p5s4d                                                           
   LEXCH  = PE                                                                  
   EATOM  =  1555.1913 eV,  114.3033 Ry                                         
                                                                                
   TITEL  = PAW_PBE Nb_sv 25May2007                                             
   LULTRA =        F    use ultrasoft PP ?                                      
   IUNSCR =        1    unscreen: 0-lin 1-nonlin 2-no                           
   RPACOR =    1.800    partial core radius                                     
   POMASS =   92.910; ZVAL   =   13.000    mass and valenz                      
   RCORE  =    2.400    outmost cutoff radius                                   
   RWIGS  =    2.400; RWIGS  =    1.270    wigner-seitz radius (au A)           
   ENMAX  =  293.235; ENMIN  =  219.927 eV                                      
   ICORE  =        3    local potential                                         
   LCOR   =        T    correct aug charges                                     
   LPAW   =        T    paw PP                                                  
   EAUG   =  455.659                                                            
   DEXC   =    0.000                                                            
   RMAX   =    2.456    core radius for proj-oper                               
   RAUG   =    1.300    factor for augmentation sphere                          
   RDEP   =    2.451    radius for radial grids                                 
   RDEPT  =    1.956    core radius for aug-charge                              
                                                                                
   Atomic configuration                                                         
   11 entries                                                                   
     n  l   j            E        occ.                                          
     1  0  0.50    -18805.2457   2.0000                                         
     2  0  0.50     -2630.2869   2.0000                                         
     2  1  1.50     -2348.4046   6.0000                                         
     3  0  0.50      -438.8757   2.0000                                         
     3  1  1.50      -346.7588   6.0000                                         
     3  2  2.50      -196.2560  10.0000                                         
     4  0  0.50       -58.3859   2.0000                                         
     5  0  0.50        -3.9816   1.0000                                         
     4  1  1.50       -34.5141   6.0000                                         
     4  2  2.50        -3.0408   4.0000                                         
     4  3  2.50        -1.3606   0.0000                                         
   Description                                                                  
     l       E           TYP  RCUT    TYP  RCUT                                 
     0    -58.3859094     23  2.200                                             
     0     -3.9816262     23  2.200                                             
     1    -34.5140738     23  2.200                                             
     1     13.6058260     23  2.200                                             
     2     -3.0408010     23  2.200                                             
     2     -0.1283038     23  2.200                                             
     3     -1.3605826     23  2.400                                             
  local pseudopotential read in
  partial core-charges read in
  partial kinetic energy density read in
  atomic valenz-charges read in
  non local Contribution for L=           0  read in
    real space projection operators read in
  non local Contribution for L=           0  read in
    real space projection operators read in
  non local Contribution for L=           1  read in
    real space projection operators read in
  non local Contribution for L=           1  read in
    real space projection operators read in
  non local Contribution for L=           2  read in
    real space projection operators read in
  non local Contribution for L=           2  read in
    real space projection operators read in
    PAW grid and wavefunctions read in
 
   number of l-projection  operators is LMAX  =           6
   number of lm-projection operators is LMMAX =          18
 
 POTCAR:    PAW_PBE Ni 02Aug2007                  
   VRHFIN =Ni:                                                                  
   LEXCH  = PE                                                                  
   EATOM  =  1077.6739 eV,   79.2068 Ry                                         
                                                                                
   TITEL  = PAW_PBE Ni 02Aug2007                                                
   LULTRA =        F    use ultrasoft PP ?                                      
   IUNSCR =        1    unscreen: 0-lin 1-nonlin 2-no                           
   RPACOR =    2.000    partial core radius                                     
   POMASS =   58.690; ZVAL   =   10.000    mass and valenz                      
   RCORE  =    2.300    outmost cutoff radius                                   
   RWIGS  =    2.430; RWIGS  =    1.286    wigner-seitz radius (au A)           
   ENMAX  =  269.532; ENMIN  =  202.149 eV                                      
   RCLOC  =    1.201    cutoff for local pot                                    
   LCOR   =        T    correct aug charges                                     
   LPAW   =        T    paw PP                                                  
   EAUG   =  544.565                                                            
   DEXC   =    0.000                                                            
   RMAX   =    2.357    core radius for proj-oper                               
   RAUG   =    1.300    factor for augmentation sphere                          
   RDEP   =    2.390    radius for radial grids                                 
   RDEPT  =    1.838    core radius for aug-charge                              
                                                                                
   Atomic configuration                                                         
    9 entries                                                                   
     n  l   j            E        occ.                                          
     1  0  0.50     -8206.4253   2.0000                                         
     2  0  0.50      -976.1748   2.0000                                         
     2  1  1.50      -839.0571   6.0000                                         
     3  0  0.50      -105.9991   2.0000                                         
     3  1  1.50       -66.4603   6.0000                                         
     3  2  2.50        -4.6458   9.0000                                         
     4  0  0.50        -4.4926   1.0000                                         
     4  1  1.50        -4.0817   0.0000                                         
     4  3  2.50        -1.3606   0.0000                                         
   Description                                                                  
     l       E           TYP  RCUT    TYP  RCUT                                 
     2     -4.6457903     23  2.300                                             
     2     -6.0063729     23  2.300                                             
     0     -4.4925590     23  2.300                                             
     0      5.0102601     23  2.300                                             
     1     -2.7211652     23  2.300                                             
     1     16.5183231     23  2.300                                             
  local pseudopotential read in
  partial core-charges read in
  partial kinetic energy density read in
  atomic valenz-charges read in
  non local Contribution for L=           2  read in
    real space projection operators read in
  non local Contribution for L=           2  read in
    real space projection operators read in
  non local Contribution for L=           0  read in
    real space projection operators read in
  non local Contribution for L=           0  read in
    real space projection operators read in
  non local Contribution for L=           1  read in
    real space projection operators read in
  non local Contribution for L=           1  read in
    real space projection operators read in
    PAW grid and wavefunctions read in
 
   number of l-projection  operators is LMAX  =           6
   number of lm-projection operators is LMMAX =          18
 
 POTCAR:    PAW_PBE Ti_sv 26Sep2005               
   VRHFIN =Ti: 3p4s3d                                                           
   LEXCH  = PE                                                                  
   EATOM  =  1588.0892 eV,  116.7213 Ry                                         
                                                                                
   TITEL  = PAW_PBE Ti_sv 26Sep2005                                             
   LULTRA =        F    use ultrasoft PP ?                                      
   IUNSCR =        1    unscreen: 0-lin 1-nonlin 2-no                           
   RPACOR =    2.000    partial core radius                                     
   POMASS =   47.880; ZVAL   =   12.000    mass and valenz                      
   RCORE  =    2.300    outmost cutoff radius                                   
   RWIGS  =    2.300; RWIGS  =    1.217    wigner-seitz radius (au A)           
   ENMAX  =  274.610; ENMIN  =  205.957 eV                                      
   ICORE  =        3    local potential                                         
   LCOR   =        T    correct aug charges                                     
   LPAW   =        T    paw PP                                                  
   EAUG   =  482.848                                                            
   RMAX   =    2.348    core radius for proj-oper                               
   RAUG   =    1.300    factor for augmentation sphere                          
   RDEP   =    2.381    radius for radial grids                                 
   RDEPT  =    1.930    core radius for aug-charge                              
                                                                                
   Atomic configuration                                                         
    8 entries                                                                   
     n  l   j            E        occ.                                          
     1  0  0.50     -4865.3608   2.0000                                         
     2  0  0.50      -533.1368   2.0000                                         
     2  1  1.50      -440.5031   6.0000                                         
     3  0  0.50       -59.3186   2.0000                                         
     4  0  0.50        -3.7291   1.0000                                         
     3  1  1.50       -35.7012   6.0000                                         
     3  2  2.50        -1.9157   3.0000                                         
     4  3  2.50        -1.3606   0.0000                                         
   Description                                                                  
     l       E           TYP  RCUT    TYP  RCUT                                 
     0    -59.3185931     23  1.800                                             
     0     -3.7290822     23  2.300                                             
     1    -35.7012045     23  2.300                                             
     1     -1.3605826     23  2.300                                             
     2     -1.9156920     23  2.300                                             
     2     -0.0236318     23  2.300                                             
     3     -1.3605826     23  2.300                                             
  local pseudopotential read in
  partial core-charges read in
  partial kinetic energy density read in
  atomic valenz-charges read in
  non local Contribution for L=           0  read in
    real space projection operators read in
  non local Contribution for L=           0  read in
    real space projection operators read in
  non local Contribution for L=           1  read in
    real space projection operators read in
  non local Contribution for L=           1  read in
    real space projection operators read in
  non local Contribution for L=           2  read in
    real space projection operators read in
  non local Contribution for L=           2  read in
    real space projection operators read in
    PAW grid and wavefunctions read in
 
   number of l-projection  operators is LMAX  =           6
   number of lm-projection operators is LMMAX =          18
 
 Optimization of the real space projectors (new method)

 maximal supplied QI-value         = 25.13
 optimisation between [QCUT,QGAM] = [ 10.81, 21.61] = [ 32.71,130.83] Ry 
 Optimized for a Real-space Cutoff    1.23 Angstroem

   l    n(q)    QCUT    max X(q) W(low)/X(q) W(high)/X(q)  e(spline) 
   0      8    10.807    79.467    0.34E-03    0.68E-03    0.21E-06
   0      8    10.807    66.151    0.34E-03    0.67E-03    0.21E-06
   1      7    10.807    14.030    0.45E-03    0.13E-02    0.11E-05
   1      7    10.807     9.831    0.48E-03    0.13E-02    0.11E-05
 Optimization of the real space projectors (new method)

 maximal supplied QI-value         = 15.68
 optimisation between [QCUT,QGAM] = [ 10.82, 21.64] = [ 32.80,131.19] Ry 
 Optimized for a Real-space Cutoff    1.65 Angstroem

   l    n(q)    QCUT    max X(q) W(low)/X(q) W(high)/X(q)  e(spline) 
   0     11    10.822    10.201    0.23E-04    0.55E-05    0.31E-07
   0     11    10.822     8.174    0.35E-04    0.99E-05    0.65E-07
   1     10    10.822     3.488    0.18E-04    0.21E-04    0.55E-07
   1     10    10.822     4.917    0.15E-03    0.13E-03    0.29E-06
   2     10    10.822   153.744    0.28E-03    0.15E-03    0.13E-05
   2     10    10.822   126.342    0.28E-03    0.15E-03    0.13E-05
 Optimization of the real space projectors (new method)

 maximal supplied QI-value         = 16.25
 optimisation between [QCUT,QGAM] = [ 10.73, 21.61] = [ 32.22,130.83] Ry 
 Optimized for a Real-space Cutoff    1.34 Angstroem

   l    n(q)    QCUT    max X(q) W(low)/X(q) W(high)/X(q)  e(spline) 
   2      8    10.726    60.317    0.47E-03    0.39E-03    0.97E-07
   2      8    10.726    55.921    0.48E-03    0.39E-03    0.10E-06
   0      9    10.726    51.690    0.35E-03    0.32E-03    0.97E-07
   0      9    10.726    30.015    0.31E-03    0.29E-03    0.88E-07
   1      8    10.726    18.849    0.34E-03    0.47E-04    0.17E-06
   1      8    10.726    14.624    0.29E-03    0.31E-04    0.15E-06
 Optimization of the real space projectors (new method)

 maximal supplied QI-value         = 16.25
 optimisation between [QCUT,QGAM] = [ 10.73, 21.61] = [ 32.22,130.83] Ry 
 Optimized for a Real-space Cutoff    1.42 Angstroem

   l    n(q)    QCUT    max X(q) W(low)/X(q) W(high)/X(q)  e(spline) 
   0      9    10.726    12.277    0.26E-04    0.93E-05    0.23E-07
   0      9    10.726    11.419    0.43E-04    0.26E-04    0.41E-07
   1      9    10.726     4.010    0.28E-04    0.11E-04    0.40E-07
   1      9    10.726     6.182    0.70E-04    0.54E-04    0.11E-06
   2      8    10.726    47.177    0.35E-03    0.22E-03    0.10E-06
   2      8    10.726    42.437    0.34E-03    0.22E-03    0.98E-07
  PAW_PBE N 08Apr2002                   :
 energy of atom  1       EATOM= -264.5486
 kinetic energy error for atom=    0.0253 (will be added to EATOM!!)
  PAW_PBE Nb_sv 25May2007               :
 energy of atom  2       EATOM=-1555.1913
 kinetic energy error for atom=    0.0113 (will be added to EATOM!!)
  PAW_PBE Ni 02Aug2007                  :
 energy of atom  3       EATOM=-1077.6739
 kinetic energy error for atom=    0.0038 (will be added to EATOM!!)
  PAW_PBE Ti_sv 26Sep2005               :
 energy of atom  4       EATOM=-1588.0892
 kinetic energy error for atom=    0.0068 (will be added to EATOM!!)
 
 
 POSCAR: Poscar file generated with pyiron       
  positions in direct lattice
  No initial velocities read in
 exchange correlation table for  LEXCH =        8
   RHO(1)=    0.500       N(1)  =     2000
   RHO(2)=  100.500       N(2)  =     4000
 


--------------------------------------------------------------------------------------------------------


 ion  position               nearest neighbor table
   1  0.125  0.125  0.053- 194 2.15 203 2.15 190 2.15 191 2.15 206 2.15 239 2.15
   2  0.042  0.042  0.123- 192 2.14 239 2.15 251 2.15 203 2.15 204 2.15 240 2.16
   3  0.209  0.209  0.191- 196 2.10 208 2.11 192 2.11 209 2.23 213 2.24 197 2.24
   4  0.125  0.125  0.254-  91 1.83 193 1.97 209 1.97 197 1.97
   5  0.125  0.375  0.053- 191 2.15 198 2.15 195 2.15 194 2.15 210 2.15 243 2.15
   6  0.042  0.292  0.123- 243 2.15 239 2.15 192 2.15 191 2.15 196 2.16 244 2.16
   7  0.208  0.459  0.192- 200 2.11 196 2.12 212 2.13 217 2.17 213 2.20 201 2.22
   8  0.125  0.375  0.255-  96 1.83 201 1.97 197 1.98 213 1.99
   9  0.125  0.625  0.053- 195 2.15 202 2.15 199 2.15 198 2.15 214 2.15 247 2.15
  10  0.042  0.542  0.123- 196 2.14 247 2.15 243 2.15 200 2.15 195 2.15 248 2.15
  11  0.208  0.708  0.192- 204 2.12 200 2.12 216 2.13 217 2.17 221 2.19 205 2.20
  12  0.126  0.626  0.259- 101 1.92 106 2.02 205 2.03 201 2.04 217 2.07
  13  0.125  0.875  0.053- 190 2.15 199 2.15 202 2.15 203 2.15 218 2.15 251 2.15
  14  0.042  0.792  0.123- 200 2.14 204 2.14 251 2.15 247 2.15 252 2.15 199 2.15
  15  0.208  0.957  0.191- 204 2.11 192 2.12 220 2.12 221 2.20 209 2.22 193 2.24
  16  0.126  0.871  0.257- 111 1.86 205 1.99 193 2.02 221 2.03 106 2.25
  17  0.375  0.125  0.053- 210 2.15 219 2.15 206 2.15 207 2.15 191 2.15 222 2.15
  18  0.292  0.042  0.123- 191 2.15 203 2.15 219 2.15 192 2.15 208 2.16 220 2.16
  19  0.460  0.208  0.192- 224 2.12 208 2.12 212 2.13 229 2.17 213 2.20 225 2.21
  20  0.376  0.125  0.255- 116 1.84 225 1.97 209 1.98 213 1.99
  21  0.375  0.375  0.053- 207 2.15 214 2.15 211 2.15 210 2.15 195 2.15 226 2.15
  22  0.292  0.292  0.123- 195 2.15 191 2.15 208 2.15 207 2.15 196 2.15 212 2.16
  23  0.458  0.458  0.192- 212 2.12 216 2.12 228 2.12 233 2.16 229 2.16 217 2.17
  24  0.377  0.377  0.259- 121 1.89 217 2.04 229 2.04 213 2.05 126 2.30 145 2.31
  25  0.375  0.625  0.053- 211 2.15 218 2.15 215 2.15 214 2.15 199 2.15 230 2.15
  26  0.292  0.542  0.123- 212 2.14 199 2.15 216 2.15 195 2.15 211 2.15 200 2.15
  27  0.459  0.708  0.192- 220 2.11 232 2.12 216 2.12 233 2.15 237 2.19 221 2.19
  28  0.378  0.622  0.261-  65 1.95 126 2.05 217 2.08 233 2.08 221 2.08 150 2.22
  29  0.375  0.875  0.053- 206 2.15 215 2.15 218 2.15 219 2.15 203 2.15 234 2.15
  30  0.292  0.792  0.123- 220 2.14 203 2.15 199 2.15 216 2.15 215 2.15 204 2.15
  31  0.460  0.957  0.192- 236 2.11 208 2.12 220 2.13 237 2.20 209 2.21 225 2.22
  32  0.377  0.873  0.256- 135 1.85 237 1.99 209 2.00 221 2.00
  33  0.625  0.125  0.053- 226 2.15 235 2.15 222 2.15 223 2.15 207 2.15 238 2.15
  34  0.542  0.042  0.123- 207 2.15 208 2.15 219 2.15 236 2.15 224 2.15 235 2.15
  35  0.708  0.208  0.192- 224 2.12 240 2.12 228 2.13 229 2.17 245 2.19 241 2.19
  36  0.626  0.125  0.259- 140 1.92 165 2.02 241 2.03 225 2.04 229 2.07
  37  0.625  0.375  0.053- 223 2.15 230 2.15 227 2.15 226 2.15 211 2.15 242 2.15
  38  0.542  0.292  0.123- 211 2.15 212 2.15 228 2.15 207 2.15 224 2.15 223 2.15
  39  0.708  0.459  0.192- 232 2.12 244 2.12 228 2.12 233 2.16 245 2.18 249 2.19
  40  0.622  0.378  0.261- 170 1.95 145 2.06 233 2.08 229 2.08 245 2.09 150 2.22
  41  0.625  0.625  0.053- 227 2.15 234 2.15 231 2.15 230 2.15 215 2.15 246 2.15
  42  0.542  0.542  0.123- 228 2.14 215 2.15 232 2.15 211 2.15 216 2.15 227 2.15
  43  0.709  0.709  0.192- 236 2.12 248 2.12 232 2.13 249 2.18 237 2.19 253 2.20
  44  0.624  0.624  0.260- 175 1.97 155 1.98 237 2.06 249 2.06 233 2.08
  45  0.625  0.875  0.053- 222 2.15 231 2.15 234 2.15 235 2.15 219 2.15 250 2.15
  46  0.542  0.792  0.123- 220 2.15 219 2.15 232 2.15 215 2.15 231 2.15 236 2.15
  47  0.709  0.958  0.192- 236 2.13 252 2.13 224 2.13 253 2.19 241 2.19 225 2.20
  48  0.628  0.873  0.259- 160 1.89 253 2.02 225 2.05 237 2.07 180 2.10 185 2.33
  49  0.875  0.125  0.053- 242 2.15 251 2.15 238 2.15 239 2.15 190 2.15 223 2.15
  50  0.792  0.042  0.123- 252 2.14 240 2.14 223 2.15 235 2.15 224 2.15 251 2.15
  51  0.957  0.208  0.191- 240 2.11 244 2.12 192 2.13 245 2.21 197 2.22 193 2.23
  52  0.872  0.125  0.257-  66 1.86 241 1.99 193 2.02 245 2.03 165 2.27
  53  0.875  0.375  0.053- 239 2.15 246 2.15 243 2.15 242 2.15 194 2.15 227 2.15
  54  0.792  0.292  0.123- 244 2.14 227 2.15 223 2.15 240 2.15 239 2.15 228 2.15
  55  0.957  0.460  0.192- 248 2.10 244 2.13 196 2.13 197 2.21 249 2.21 201 2.22
  56  0.873  0.376  0.256-  71 1.85 249 1.99 197 2.00 245 2.00
  57  0.875  0.625  0.053- 243 2.15 250 2.15 247 2.15 246 2.15 198 2.15 231 2.15
  58  0.792  0.542  0.123- 244 2.14 231 2.15 227 2.15 243 2.15 232 2.15 248 2.15
  59  0.958  0.709  0.192- 252 2.12 248 2.13 200 2.13 205 2.19 253 2.19 201 2.20
  60  0.873  0.628  0.259-  76 1.89 253 2.02 201 2.05 249 2.06 180 2.11  81 2.33
  61  0.875  0.875  0.053- 238 2.15 247 2.15 250 2.15 251 2.15 202 2.15 235 2.15
  62  0.792  0.792  0.123- 252 2.14 248 2.14 235 2.15 236 2.15 231 2.15 247 2.15
  63  0.958  0.958  0.192- 252 2.12 240 2.13 204 2.13 205 2.19 241 2.20 193 2.20
  64  0.874  0.874  0.261-  86 1.97 253 2.05  81 2.08 241 2.08 205 2.08 185 2.08
  65  0.334  0.732  0.305-  28 1.95 126 2.41 150 2.42 135 2.44 155 2.44 106 2.44 111 2.46 131 2.46
                           112 2.47 136 2.48 221 2.74
  66  0.932  0.133  0.306-  52 1.86 165 2.43  86 2.43  71 2.45 111 2.45 170 2.45  91 2.46 171 2.46
                            67 2.47  72 2.48 193 2.92
  67  0.999  1.000  0.363-  87 2.44 166 2.44  72 2.44 112 2.44 171 2.44  92 2.45  66 2.47 111 2.47
                            88 2.48 167 2.48  68 2.49  86 2.51
  68  0.067  0.067  0.422-  88 2.44  73 2.44 113 2.44 172 2.44 167 2.45  93 2.45  72 2.48 114 2.48
                            92 2.48  69 2.48  94 2.49  67 2.49
  69  0.933  0.133  0.481-  74 2.44  89 2.44 173 2.44 114 2.44 168 2.44  94 2.44  70 2.47  75 2.47
                           174 2.47  68 2.48 172 2.49 167 2.50
  70  0.000  0.000  0.539-  75 2.44  90 2.44 115 2.44 174 2.44 169 2.44  95 2.44  69 2.47  89 2.47
                           114 2.47
  71  0.931  0.335  0.306-  56 1.85 175 2.43  76 2.44 170 2.45 176 2.45  66 2.45  91 2.46  77 2.47
                            96 2.47  72 2.47 197 2.91
  72  1.000  0.200  0.364-  67 2.44  92 2.44  77 2.44 176 2.45 171 2.45  97 2.45  91 2.46  71 2.47
                           172 2.48  66 2.48  68 2.48  73 2.48
  73  0.067  0.267  0.422-  78 2.44  68 2.44  93 2.44 177 2.45  98 2.45 172 2.45  99 2.48  94 2.48
                            97 2.48  77 2.48  74 2.48  72 2.48
  74  0.933  0.333  0.481-  79 2.44  69 2.44 178 2.44  94 2.44 173 2.44  99 2.44  75 2.47  80 2.47
                           179 2.47  73 2.48 172 2.49 177 2.49
  75  0.000  0.200  0.539-  80 2.44  70 2.44 179 2.44  95 2.44 174 2.44 100 2.44  74 2.47  69 2.47
                            94 2.47
  76  0.933  0.534  0.305-  60 1.89  96 2.43  81 2.44 180 2.44  71 2.44 101 2.45 181 2.46 175 2.46
                            82 2.47  77 2.49 201 2.96
  77  1.000  0.401  0.364-  82 2.44 181 2.44  72 2.44  97 2.45 102 2.45 176 2.45  96 2.47  71 2.47
                           177 2.48  78 2.48  73 2.48  76 2.49
  78  0.067  0.467  0.422-  83 2.43  73 2.44 182 2.44  98 2.44 103 2.45 177 2.45  77 2.48 102 2.48
                           104 2.48  79 2.49  99 2.49  82 2.50
  79  0.933  0.533  0.481-  74 2.44  84 2.44 183 2.44  99 2.44 178 2.44 104 2.44  80 2.47  85 2.47
                           184 2.47  78 2.49 177 2.49 182 2.50
  80  0.000  0.400  0.539-  75 2.44  85 2.44 100 2.44 184 2.44 179 2.44 105 2.44  79 2.47  74 2.47
                            99 2.47
  81  0.933  0.734  0.302-  64 2.08  60 2.33  86 2.43 185 2.43  76 2.44 101 2.44 180 2.45 106 2.45
                           186 2.52  87 2.53  82 2.55 253 2.95
  82  1.000  0.601  0.363-  87 2.42 186 2.43  77 2.44 102 2.44 181 2.45 107 2.45  76 2.47 101 2.48
                            83 2.48 182 2.48  78 2.50  81 2.55
  83  0.067  0.667  0.422-  88 2.43  78 2.43 103 2.44 187 2.44 108 2.44 182 2.45  82 2.48 109 2.50
                           104 2.50 107 2.50  84 2.50  87 2.50
  84  0.933  0.733  0.481-  89 2.44  79 2.44 188 2.44 104 2.44 183 2.44 109 2.44  85 2.47  90 2.47
                           189 2.47 182 2.50  83 2.50 187 2.51
  85  0.000  0.600  0.539-  90 2.44  80 2.44 189 2.44 105 2.44 184 2.44 110 2.44  84 2.47  79 2.47
                           104 2.47
  86  0.933  0.933  0.304-  64 1.97  81 2.43 185 2.43  66 2.43 111 2.44 165 2.45 106 2.45  87 2.48
                           166 2.48  67 2.51
  87  0.000  0.799  0.362-  82 2.42 107 2.44  67 2.44 112 2.44 186 2.45 166 2.45  86 2.48 187 2.50
                            83 2.50  88 2.51  81 2.53 106 2.55
  88  0.066  0.866  0.422-  83 2.43  68 2.44 108 2.44 167 2.44 187 2.44 113 2.45  67 2.48 112 2.49
                           109 2.49  89 2.49 114 2.50  87 2.51
  89  0.933  0.933  0.481-  84 2.44  69 2.44 168 2.44 109 2.44 188 2.44 114 2.44  90 2.47  70 2.47
                           169 2.47 167 2.49  88 2.49 187 2.51
  90  0.000  0.800  0.539-  85 2.44  70 2.44 110 2.44 169 2.44 115 2.44 189 2.44  89 2.47  84 2.47
                           109 2.47
  91  0.133  0.133  0.306-   4 1.83 111 2.45  66 2.46  92 2.46  72 2.46  96 2.46  71 2.46 135 2.46
                            97 2.47 116 2.47
  92  0.200  1.000  0.364- 112 2.44  97 2.44  72 2.44 136 2.45  67 2.45 117 2.45  91 2.46 135 2.47
                           113 2.48 111 2.48  68 2.48  93 2.48
  93  0.267  0.067  0.422-  98 2.44 113 2.44  73 2.44 137 2.44 118 2.45  68 2.45  97 2.48 138 2.48
                           119 2.48  92 2.48 117 2.48  94 2.49
  94  0.133  0.133  0.481-  99 2.44 114 2.44  74 2.44 138 2.44 119 2.44  69 2.44  95 2.47 100 2.47
                            75 2.47  73 2.48  93 2.49  68 2.49
  95  0.200  0.000  0.539- 100 2.44 115 2.44 139 2.44  75 2.44 120 2.44  70 2.44  94 2.47 114 2.47
                           138 2.47
  96  0.133  0.336  0.306-   8 1.83 101 2.43  76 2.43 121 2.45 102 2.46  91 2.46  77 2.47 116 2.47
                            71 2.47  97 2.48
  97  0.200  0.200  0.364-  92 2.44 102 2.44  77 2.45 117 2.45 122 2.45  72 2.45  91 2.47  96 2.48
                           116 2.48  98 2.48  93 2.48  73 2.48
  98  0.267  0.267  0.422- 103 2.44  93 2.44 118 2.44  78 2.44 123 2.45  73 2.45  97 2.48 124 2.48
                           119 2.48 102 2.48 122 2.48  99 2.49
  99  0.133  0.333  0.481- 104 2.44  94 2.44  79 2.44 119 2.44  74 2.44 124 2.44 100 2.47 105 2.47
                            80 2.47  73 2.48  98 2.49  78 2.49
 100  0.200  0.200  0.539- 105 2.44  95 2.44 120 2.44  80 2.44 125 2.44  75 2.44  99 2.47  94 2.47
                           119 2.47
 101  0.133  0.535  0.305-  12 1.92 106 2.42  96 2.43  81 2.44 121 2.45 126 2.45  76 2.45 107 2.46
                            82 2.48 102 2.50 201 2.83
 102  0.200  0.401  0.364- 107 2.44  82 2.44  97 2.44  77 2.45 127 2.45 122 2.45  96 2.46 121 2.47
                           103 2.47  78 2.48  98 2.48 101 2.50
 103  0.267  0.467  0.422- 108 2.43  98 2.44  83 2.44 128 2.44 123 2.44  78 2.45 102 2.47 127 2.49
                           129 2.49 124 2.49 104 2.49 107 2.50
 104  0.133  0.533  0.481-  99 2.44 109 2.44 124 2.44  84 2.44  79 2.44 129 2.44 105 2.47 110 2.47
                            85 2.47  78 2.48 103 2.49  83 2.50
 105  0.200  0.400  0.539- 100 2.44 110 2.44 125 2.44  85 2.44 130 2.44  80 2.44 104 2.47  99 2.47
                           124 2.47
 106  0.134  0.733  0.302-  12 2.02  16 2.25 101 2.42 111 2.43  65 2.44 126 2.44  86 2.45  81 2.45
                            87 2.55 107 2.55 112 2.56 205 2.72
 107  0.200  0.601  0.363- 112 2.42  87 2.44 102 2.44 131 2.44 127 2.44  82 2.45 101 2.46 108 2.49
                            83 2.50 103 2.50 126 2.52 106 2.55
 108  0.267  0.667  0.422- 103 2.43 113 2.44  88 2.44 128 2.44  83 2.44 132 2.45 112 2.48 131 2.48
                           129 2.49 109 2.49 133 2.49 107 2.49
 109  0.133  0.733  0.481- 114 2.44 104 2.44  89 2.44 129 2.44  84 2.44 133 2.44 110 2.47 115 2.47
                            90 2.47  88 2.49 108 2.49  83 2.50
 110  0.200  0.600  0.539- 115 2.44 105 2.44 130 2.44  90 2.44 134 2.44  85 2.44 109 2.47 104 2.47
                           129 2.47
 111  0.133  0.933  0.306-  16 1.86 106 2.43  86 2.44  91 2.45  66 2.45  65 2.46 112 2.46 135 2.46
                            67 2.47  92 2.48 193 2.91
 112  0.200  0.800  0.363- 107 2.42  87 2.44  92 2.44  67 2.44 131 2.44 136 2.45 111 2.46  65 2.47
                           108 2.48  88 2.49 113 2.49 106 2.56
 113  0.267  0.867  0.422- 108 2.44  93 2.44 132 2.44  68 2.44  88 2.45 137 2.45  92 2.48 136 2.48
                           133 2.49 138 2.49 114 2.49 112 2.49
 114  0.133  0.933  0.481- 109 2.44  94 2.44 133 2.44  69 2.44  89 2.44 138 2.44 115 2.47  95 2.47
                            70 2.47  68 2.48 113 2.49  88 2.50
 115  0.200  0.800  0.539- 110 2.44  95 2.44 134 2.44  70 2.44 139 2.44  90 2.44 114 2.47 109 2.47
                           133 2.47
 116  0.335  0.133  0.306-  20 1.84 160 2.44 140 2.44 121 2.45 122 2.46 135 2.46 117 2.47  96 2.47
                            91 2.47  97 2.48
 117  0.401  1.000  0.364- 122 2.44 136 2.44 161 2.44 141 2.45  97 2.45  92 2.45 116 2.47 135 2.47
                           137 2.47 118 2.48  93 2.48 160 2.49
 118  0.467  0.067  0.422- 123 2.44 137 2.44 162 2.44 142 2.44  98 2.44  93 2.45 122 2.48 117 2.48
                           143 2.48 163 2.48 119 2.49 141 2.50
 119  0.333  0.133  0.481- 124 2.44 138 2.44 163 2.44  99 2.44 143 2.44  94 2.44 120 2.47 125 2.47
                           100 2.47  93 2.48  98 2.48 118 2.49
 120  0.400  0.000  0.539- 125 2.44 139 2.44 100 2.44 164 2.44  95 2.44 144 2.44 119 2.47 138 2.47
                           163 2.47
 121  0.334  0.335  0.306-  24 1.89 126 2.43 145 2.44 127 2.44 116 2.45 101 2.45 140 2.45  96 2.45
                           122 2.47 102 2.47 213 2.81
 122  0.401  0.200  0.364- 117 2.44 127 2.44 141 2.44 146 2.44  97 2.45 102 2.45 116 2.46 121 2.47
                           123 2.47 118 2.48  98 2.48 140 2.50
 123  0.467  0.267  0.422- 128 2.43 118 2.44 147 2.44 142 2.44 103 2.44  98 2.45 122 2.47 127 2.49
                           148 2.49 143 2.49 124 2.49 146 2.50
 124  0.333  0.333  0.481- 129 2.44 119 2.44 143 2.44 104 2.44 148 2.44  99 2.44 125 2.47 130 2.47
                           105 2.47  98 2.48 103 2.49 123 2.49
 125  0.400  0.200  0.539- 130 2.44 120 2.44 105 2.44 144 2.44 100 2.44 149 2.44 124 2.47 119 2.47
                           143 2.47
 126  0.335  0.533  0.303-  28 2.05  24 2.30  65 2.41 150 2.42 145 2.42 121 2.43 106 2.44 101 2.45
                           107 2.52 131 2.53 127 2.53 217 2.66
 127  0.400  0.401  0.363- 131 2.43 151 2.43 107 2.44 146 2.44 122 2.44 121 2.44 102 2.45 128 2.48
                           123 2.49 103 2.49 145 2.53 126 2.53
 128  0.467  0.467  0.422- 123 2.43 132 2.44 103 2.44 108 2.44 147 2.44 152 2.44 131 2.48 151 2.48
                           127 2.48 148 2.49 129 2.49 153 2.49
 129  0.333  0.533  0.481- 124 2.44 133 2.44 148 2.44 109 2.44 153 2.44 104 2.44 130 2.47 134 2.47
                           110 2.47 128 2.49 103 2.49 108 2.49
 130  0.400  0.400  0.539- 125 2.44 134 2.44 110 2.44 149 2.44 105 2.44 154 2.44 129 2.47 124 2.47
                           148 2.47
 131  0.400  0.600  0.363- 127 2.43 151 2.43 136 2.44 107 2.44 156 2.44 112 2.44  65 2.46 128 2.48
                           108 2.48 132 2.49 126 2.53 150 2.54
 132  0.467  0.667  0.422- 128 2.44 137 2.44 152 2.44 113 2.44 157 2.45 108 2.45 136 2.48 131 2.49
                           153 2.49 158 2.49 156 2.49 133 2.49
 133  0.333  0.733  0.481- 138 2.44 129 2.44 153 2.44 114 2.44 158 2.44 109 2.44 134 2.47 139 2.47
                           115 2.47 113 2.49 132 2.49 108 2.49
 134  0.400  0.600  0.539- 139 2.44 130 2.44 115 2.44 154 2.44 110 2.44 159 2.44 133 2.47 129 2.47
                           153 2.47
 135  0.335  0.932  0.306-  32 1.85 155 2.43  65 2.44 160 2.45 136 2.45 111 2.46 116 2.46  91 2.46
                           117 2.47  92 2.47 209 2.91
 136  0.400  0.800  0.364- 156 2.43 131 2.44 117 2.44  92 2.45 161 2.45 135 2.45 112 2.45 132 2.48
                           137 2.48  65 2.48 113 2.48 155 2.51
 137  0.467  0.866  0.422- 157 2.44 132 2.44 118 2.44 162 2.44  93 2.44 113 2.45 117 2.47 136 2.48
                           158 2.49 163 2.49 138 2.49 161 2.51
 138  0.333  0.933  0.481- 133 2.44 119 2.44 158 2.44  94 2.44 163 2.44 114 2.44 139 2.47 120 2.47
                            95 2.47  93 2.48 113 2.49 137 2.49
 139  0.400  0.800  0.539- 134 2.44 120 2.44  95 2.44 159 2.44 115 2.44 164 2.44 138 2.47 133 2.47
                           158 2.47
 140  0.535  0.134  0.305-  36 1.92 165 2.43 185 2.44 116 2.44 145 2.44 160 2.45 121 2.45 146 2.46
                           141 2.48 122 2.50 225 2.83
 141  0.601  1.000  0.363- 166 2.43 186 2.44 161 2.44 122 2.44 146 2.44 117 2.45 160 2.47 140 2.48
                           162 2.48 142 2.48 118 2.50 185 2.55
 142  0.667  0.067  0.422- 147 2.43 167 2.44 162 2.44 187 2.44 123 2.44 118 2.44 141 2.48 146 2.49
                           168 2.50 188 2.50 143 2.50 166 2.50
 143  0.533  0.133  0.481- 148 2.44 163 2.44 124 2.44 188 2.44 119 2.44 168 2.44 144 2.47 149 2.47
                           125 2.47 118 2.48 123 2.49 142 2.50
 144  0.600  0.000  0.539- 149 2.44 164 2.44 189 2.44 125 2.44 169 2.44 120 2.44 143 2.47 163 2.47
                           188 2.47
 145  0.533  0.335  0.303-  40 2.06  24 2.31 150 2.41 170 2.42 126 2.42 121 2.44 165 2.44 140 2.44
                           146 2.52 151 2.53 127 2.53 229 2.66
 146  0.600  0.201  0.363- 171 2.43 151 2.43 166 2.44 127 2.44 122 2.44 141 2.44 140 2.46 147 2.49
                           142 2.49 123 2.50 145 2.52 165 2.55
 147  0.667  0.267  0.422- 142 2.43 152 2.44 123 2.44 128 2.44 167 2.44 172 2.44 151 2.48 171 2.48
                           168 2.49 148 2.49 173 2.49 146 2.49
 148  0.533  0.333  0.481- 153 2.44 143 2.44 129 2.44 168 2.44 124 2.44 173 2.44 149 2.47 154 2.47
                           130 2.47 128 2.49 123 2.49 147 2.49
 149  0.600  0.200  0.539- 154 2.44 144 2.44 169 2.44 130 2.44 174 2.44 125 2.44 148 2.47 143 2.47
                           168 2.47
 150  0.533  0.533  0.303-  28 2.22  40 2.22 145 2.41 126 2.42 170 2.42  65 2.42 155 2.43 175 2.44
                           131 2.54 151 2.54 156 2.54 233 2.64
 151  0.599  0.401  0.364- 131 2.43 156 2.43 146 2.43 127 2.43 171 2.44 176 2.44 170 2.46 128 2.48
                           147 2.48 152 2.48 145 2.53 150 2.54
 152  0.667  0.467  0.422- 132 2.44 157 2.44 147 2.44 172 2.44 128 2.44 177 2.45 176 2.48 151 2.48
                           173 2.49 178 2.49 153 2.49 156 2.49
 153  0.533  0.533  0.481- 148 2.44 158 2.44 133 2.44 173 2.44 129 2.44 178 2.44 154 2.47 159 2.47
                           134 2.47 132 2.49 128 2.49 152 2.49
 154  0.600  0.400  0.539- 149 2.44 159 2.44 174 2.44 134 2.44 179 2.44 130 2.44 153 2.47 148 2.47
                           173 2.47
 155  0.534  0.732  0.304-  44 1.98 175 2.41 150 2.43 135 2.43  65 2.44 180 2.45 160 2.46 156 2.49
                           161 2.49 136 2.51 237 2.73
 156  0.600  0.600  0.363- 151 2.43 136 2.43 176 2.44 161 2.44 131 2.44 181 2.45 157 2.49 152 2.49
                           132 2.49 175 2.49 155 2.49 150 2.54
 157  0.667  0.667  0.422- 162 2.44 137 2.44 177 2.44 152 2.44 182 2.44 132 2.45 156 2.49 161 2.49
                           181 2.49 183 2.50 178 2.50 158 2.50
 158  0.533  0.733  0.481- 163 2.44 153 2.44 138 2.44 178 2.44 133 2.44 183 2.44 159 2.47 164 2.47
                           139 2.47 137 2.49 132 2.49 157 2.50
 159  0.600  0.600  0.539- 164 2.44 154 2.44 179 2.44 139 2.44 184 2.44 134 2.44 158 2.47 153 2.47
                           178 2.47
 160  0.534  0.933  0.305-  48 1.89 116 2.44 180 2.44 185 2.44 140 2.45 135 2.45 155 2.46 161 2.46
                           141 2.47 117 2.49 225 2.96
 161  0.601  0.799  0.363- 181 2.42 186 2.44 156 2.44 141 2.44 117 2.44 136 2.45 160 2.46 157 2.49
                           155 2.49 162 2.49 137 2.51 180 2.59
 162  0.667  0.866  0.422- 182 2.43 157 2.44 142 2.44 187 2.44 118 2.44 137 2.44 141 2.48 161 2.49
                           183 2.50 188 2.50 163 2.50 186 2.52
 163  0.533  0.933  0.481- 158 2.44 143 2.44 119 2.44 183 2.44 138 2.44 188 2.44 164 2.47 144 2.47
                           120 2.47 118 2.48 137 2.49 162 2.50
 164  0.600  0.800  0.539- 159 2.44 144 2.44 184 2.44 120 2.44 189 2.44 139 2.44 163 2.47 158 2.47
                           183 2.47
 165  0.733  0.134  0.302-  36 2.02  52 2.27 140 2.43  66 2.43 170 2.43 185 2.44 145 2.44  86 2.45
                           166 2.54 146 2.55 171 2.56 241 2.72
 166  0.799  0.000  0.362- 141 2.43 171 2.43 146 2.44 186 2.44  67 2.44  87 2.45  86 2.48 187 2.50
                           142 2.50 167 2.51 185 2.52 165 2.54
 167  0.866  0.066  0.422- 187 2.43 142 2.44 172 2.44  88 2.44 147 2.44  68 2.45  67 2.48 171 2.48
                            89 2.49 168 2.49  69 2.50 166 2.51
 168  0.733  0.133  0.481- 173 2.44 188 2.44  89 2.44 148 2.44  69 2.44 143 2.44 169 2.47 174 2.47
                           149 2.47 147 2.49 167 2.49 142 2.50
 169  0.800  0.000  0.539- 174 2.44 189 2.44 149 2.44  90 2.44 144 2.44  70 2.44 168 2.47 188 2.47
                            89 2.47
 170  0.731  0.335  0.305-  40 1.95 145 2.42 150 2.42 175 2.43 165 2.43  71 2.45  66 2.45 151 2.46
                           171 2.47 176 2.48 245 2.74
 171  0.799  0.200  0.363- 146 2.43 166 2.43  67 2.44 176 2.44 151 2.44  72 2.45  66 2.46 170 2.47
                           147 2.48 167 2.48 172 2.49 165 2.56
 172  0.866  0.267  0.422- 167 2.44 152 2.44  68 2.44 177 2.44 147 2.44  73 2.45  72 2.48 176 2.48
                            69 2.49 173 2.49  74 2.49 171 2.49
 173  0.733  0.333  0.481- 178 2.44 168 2.44  69 2.44 153 2.44  74 2.44 148 2.44 174 2.47 179 2.47
                           154 2.47 172 2.49 152 2.49 147 2.49
 174  0.800  0.200  0.539- 179 2.44 169 2.44 154 2.44  70 2.44 149 2.44  75 2.44 173 2.47 168 2.47
                            69 2.47
 175  0.731  0.534  0.304-  44 1.97 155 2.41  71 2.43 170 2.43 150 2.44 180 2.44  76 2.46 156 2.49
                           181 2.49 176 2.51 249 2.73
 176  0.799  0.401  0.364- 156 2.44 181 2.44 171 2.44 151 2.44  72 2.45  77 2.45  71 2.45 152 2.48
                           177 2.48 170 2.48 172 2.48 175 2.51
 177  0.866  0.467  0.422- 157 2.44 182 2.44 172 2.44  73 2.45 152 2.45  78 2.45  77 2.48 176 2.48
                            79 2.49 178 2.49  74 2.49 181 2.51
 178  0.733  0.533  0.481- 173 2.44 183 2.44  74 2.44 158 2.44  79 2.44 153 2.44 179 2.47 184 2.47
                           159 2.47 152 2.49 177 2.49 157 2.50
 179  0.800  0.400  0.539- 174 2.44 184 2.44 159 2.44  75 2.44 154 2.44  80 2.44 178 2.47 173 2.47
                            74 2.47
 180  0.733  0.733  0.300-  48 2.10  60 2.11  76 2.44 160 2.44 175 2.44 185 2.44  81 2.45 155 2.45
                           186 2.57 161 2.59 181 2.59 253 2.77
 181  0.799  0.601  0.363- 161 2.42 186 2.43 176 2.44  77 2.44 156 2.45  82 2.45  76 2.46 157 2.49
                           175 2.49 182 2.49 177 2.51 180 2.59
 182  0.866  0.667  0.422- 187 2.43 162 2.43 177 2.44  78 2.44 157 2.44  83 2.45  82 2.48 181 2.49
                            84 2.50 183 2.50  79 2.50 186 2.51
 183  0.733  0.733  0.481- 188 2.44 178 2.44  79 2.44 163 2.44  84 2.44 158 2.44 184 2.47 189 2.47
                           164 2.47 157 2.50 162 2.50 182 2.50
 184  0.800  0.600  0.539- 189 2.44 179 2.44 164 2.44  80 2.44 159 2.44  85 2.44 183 2.47 178 2.47
                            79 2.47
 185  0.734  0.933  0.302-  64 2.08  48 2.33  86 2.43  81 2.43 140 2.44 165 2.44 180 2.44 160 2.44
                           186 2.51 166 2.52 141 2.55 253 2.95
 186  0.800  0.800  0.362- 181 2.43  82 2.43 161 2.44 141 2.44 166 2.44  87 2.45 185 2.51 187 2.51
                           182 2.51  81 2.52 162 2.52 180 2.57
 187  0.867  0.867  0.421- 182 2.43 167 2.43 162 2.44  83 2.44 142 2.44  88 2.44 166 2.50  87 2.50
                            84 2.51  89 2.51 188 2.51 186 2.51
 188  0.733  0.933  0.481- 183 2.44 168 2.44  84 2.44 143 2.44  89 2.44 163 2.44 189 2.47 169 2.47
                           144 2.47 142 2.50 162 2.50 187 2.51
 189  0.800  0.800  0.539- 184 2.44 169 2.44 144 2.44  85 2.44 164 2.44  90 2.44 188 2.47 183 2.47
                            84 2.47
 190  0.042  0.042  0.018-  13 2.15   1 2.15  49 2.15
 191  0.208  0.208  0.088-  18 2.15   5 2.15   1 2.15  22 2.15   6 2.15  17 2.15
 192  0.125  0.125  0.158-   3 2.11  15 2.12  51 2.13   2 2.14   6 2.15  18 2.15
 193  0.040  0.041  0.230-   4 1.97  52 2.02  16 2.02  63 2.20  51 2.23  15 2.24 111 2.91  66 2.92

 194  0.042  0.292  0.018-   1 2.15   5 2.15  53 2.15
 195  0.208  0.458  0.088-  22 2.15   9 2.15   5 2.15  26 2.15  10 2.15  21 2.15
 196  0.125  0.376  0.158-   3 2.10   7 2.12  55 2.13  10 2.14  22 2.15   6 2.16
 197  0.040  0.293  0.230-   4 1.97   8 1.98  56 2.00  55 2.21  51 2.22   3 2.24  71 2.91
 198  0.042  0.542  0.018-   5 2.15   9 2.15  57 2.15
 199  0.208  0.708  0.088-  26 2.15  13 2.15   9 2.15  30 2.15  14 2.15  25 2.15
 200  0.125  0.625  0.158-   7 2.11  11 2.12  59 2.13  14 2.14  10 2.15  26 2.15
 201  0.041  0.543  0.230-   8 1.97  12 2.04  60 2.05  59 2.20   7 2.22  55 2.22 101 2.83  76 2.96

 202  0.042  0.792  0.018-   9 2.15  13 2.15  61 2.15
 203  0.208  0.958  0.088-  30 2.15   1 2.15  13 2.15  18 2.15   2 2.15  29 2.15
 204  0.125  0.874  0.158-  15 2.11  11 2.12  63 2.13  14 2.14  30 2.15   2 2.15
 205  0.041  0.791  0.230-  16 1.99  12 2.03  64 2.08  59 2.19  63 2.19  11 2.20 106 2.72
 206  0.292  0.042  0.018-  29 2.15  17 2.15   1 2.15
 207  0.458  0.208  0.088-  34 2.15  21 2.15  17 2.15  38 2.15  22 2.15  33 2.15
 208  0.376  0.125  0.158-   3 2.11  19 2.12  31 2.12  34 2.15  22 2.15  18 2.16
 209  0.293  0.040  0.230-   4 1.97  20 1.98  32 2.00  31 2.21  15 2.22   3 2.23 135 2.91
 210  0.292  0.292  0.018-  17 2.15  21 2.15   5 2.15
 211  0.458  0.458  0.088-  38 2.15  25 2.15  21 2.15  42 2.15  26 2.15  37 2.15
 212  0.376  0.375  0.158-  23 2.12  19 2.13   7 2.13  26 2.14  38 2.15  22 2.16
 213  0.293  0.293  0.230-   8 1.99  20 1.99  24 2.05   7 2.20  19 2.20   3 2.24 121 2.81
 214  0.292  0.542  0.018-  21 2.15  25 2.15   9 2.15
 215  0.458  0.708  0.088-  42 2.15  29 2.15  25 2.15  46 2.15  30 2.15  41 2.15
 216  0.375  0.625  0.158-  23 2.12  27 2.12  11 2.13  26 2.15  42 2.15  30 2.15
 217  0.293  0.542  0.228-  24 2.04  12 2.07  28 2.08  11 2.17  23 2.17   7 2.17 126 2.66
 218  0.292  0.792  0.018-  25 2.15  29 2.15  13 2.15
 219  0.458  0.958  0.088-  46 2.15  17 2.15  29 2.15  34 2.15  18 2.15  45 2.15
 220  0.376  0.874  0.158-  27 2.11  15 2.12  31 2.13  30 2.14  46 2.15  18 2.16
 221  0.293  0.790  0.229-  32 2.00  16 2.03  28 2.08  11 2.19  27 2.19  15 2.20  65 2.74
 222  0.542  0.042  0.018-  45 2.15  33 2.15  17 2.15
 223  0.708  0.208  0.088-  50 2.15  37 2.15  33 2.15  54 2.15  38 2.15  49 2.15
 224  0.625  0.125  0.158-  19 2.12  35 2.12  47 2.13  50 2.15  38 2.15  34 2.15
 225  0.543  0.041  0.230-  20 1.97  36 2.04  48 2.05  47 2.20  19 2.21  31 2.22 140 2.83 160 2.96

 226  0.542  0.292  0.018-  33 2.15  37 2.15  21 2.15
 227  0.708  0.458  0.088-  54 2.15  41 2.15  37 2.15  58 2.15  42 2.15  53 2.15
 228  0.625  0.375  0.158-  23 2.12  39 2.12  35 2.13  42 2.14  38 2.15  54 2.15
 229  0.541  0.293  0.228-  24 2.04  36 2.07  40 2.08  23 2.16  19 2.17  35 2.17 145 2.66
 230  0.542  0.542  0.018-  37 2.15  41 2.15  25 2.15
 231  0.708  0.708  0.088-  58 2.15  45 2.15  41 2.15  62 2.15  46 2.15  57 2.15
 232  0.625  0.625  0.158-  39 2.12  27 2.12  43 2.13  46 2.15  42 2.15  58 2.15
 233  0.541  0.542  0.228-  44 2.08  40 2.08  28 2.08  27 2.15  23 2.16  39 2.16 150 2.64
 234  0.542  0.792  0.018-  41 2.15  45 2.15  29 2.15
 235  0.708  0.958  0.088-  62 2.15  33 2.15  45 2.15  50 2.15  34 2.15  61 2.15
 236  0.625  0.875  0.158-  31 2.11  43 2.12  47 2.13  62 2.15  34 2.15  46 2.15
 237  0.542  0.790  0.229-  32 1.99  44 2.06  48 2.07  27 2.19  43 2.19  31 2.20 155 2.73
 238  0.792  0.042  0.018-  61 2.15  49 2.15  33 2.15
 239  0.958  0.208  0.088-   2 2.15  53 2.15  49 2.15   6 2.15  54 2.15   1 2.15
 240  0.874  0.125  0.158-  51 2.11  35 2.12  63 2.13  50 2.14  54 2.15   2 2.16
 241  0.791  0.042  0.230-  52 1.99  36 2.03  64 2.08  47 2.19  35 2.19  63 2.20 165 2.72
 242  0.792  0.292  0.018-  49 2.15  53 2.15  37 2.15
 243  0.958  0.458  0.088-   6 2.15  57 2.15  53 2.15  10 2.15  58 2.15   5 2.15
 244  0.874  0.376  0.158-  51 2.12  39 2.12  55 2.13  58 2.14  54 2.14   6 2.16
 245  0.789  0.293  0.229-  56 2.00  52 2.03  40 2.09  39 2.18  35 2.19  51 2.21 170 2.74
 246  0.792  0.542  0.018-  53 2.15  57 2.15  41 2.15
 247  0.958  0.708  0.088-  10 2.15  61 2.15  57 2.15  14 2.15  62 2.15   9 2.15
 248  0.875  0.625  0.158-  55 2.10  43 2.12  59 2.13  62 2.14  58 2.15  10 2.15
 249  0.790  0.543  0.229-  56 1.99  44 2.06  60 2.06  43 2.18  39 2.19  55 2.21 175 2.73
 250  0.792  0.792  0.018-  57 2.15  61 2.15  45 2.15
 251  0.958  0.958  0.088-  14 2.15  49 2.15  61 2.15   2 2.15  50 2.15  13 2.15
 252  0.875  0.875  0.158-  63 2.12  59 2.12  47 2.13  62 2.14  50 2.14  14 2.15
 253  0.792  0.792  0.230-  60 2.02  48 2.02  64 2.05  47 2.19  59 2.19  43 2.20 180 2.77 185 2.95
                            81 2.95
 
  LATTYP: Found a simple monoclinic cell.
 ALAT       =    12.2230000000
 B/A-ratio  =     2.8621779309
 C/A-ratio  =     1.7320534527
 COS(beta)  =    -0.8668979226
  
  Lattice vectors:
  
 A1 = ( -12.2230000000,   0.0000000000,   0.0000000000)
 A2 = (   0.0000000000,   0.0000000000, -34.9844008500)
 A3 = (  18.3530000000, -10.5533855700,   0.0000000000)


Analysis of symmetry for initial positions (statically):
=====================================================================
 Subroutine PRICEL returns:
 Original cell was already a primitive cell.
 

 Routine SETGRP: Setting up the symmetry group for a 
 simple monoclinic supercell.


 Subroutine GETGRP returns: Found  1 space group operations
 (whereof  1 operations were pure point group operations)
 out of a pool of  4 trial point group operations.


The static configuration has the point symmetry C_1 .


Analysis of symmetry for dynamics (positions and initial velocities):
=====================================================================
 Subroutine PRICEL returns:
 Original cell was already a primitive cell.
 

 Routine SETGRP: Setting up the symmetry group for a 
 simple monoclinic supercell.


 Subroutine GETGRP returns: Found  1 space group operations
 (whereof  1 operations were pure point group operations)
 out of a pool of  4 trial point group operations.


The dynamic configuration has the point symmetry C_1 .


Analysis of constrained symmetry for selective dynamics:
=====================================================================
 Subroutine PRICEL returns:
 Original cell was already a primitive cell.
 

 Routine SETGRP: Setting up the symmetry group for a 
 simple monoclinic supercell.


 Subroutine GETGRP returns: Found  1 space group operations
 (whereof  1 operations were pure point group operations)
 out of a pool of  4 trial point group operations.


The constrained configuration has the point symmetry C_1 .


Analysis of structural, dynamic, and magnetic symmetry:
=====================================================================
 Subroutine PRICEL returns:
 Original cell was already a primitive cell.
 

 Routine SETGRP: Setting up the symmetry group for a 
 simple monoclinic supercell.


 Subroutine GETGRP returns: Found  1 space group operations
 (whereof  1 operations were pure point group operations)
 out of a pool of  4 trial point group operations.


The magnetic configuration has the point symmetry C_1 .


 Subroutine INISYM returns: Found  1 space group operations
 (whereof  1 operations are pure point group operations),
 and found     1 'primitive' translations

 
 
 KPOINTS: Kpoints file generated with pyiron_atomi

Automatic generation of k-mesh.
Space group operators:
 irot       det(A)        alpha          n_x          n_y          n_z        tau_x        tau_y        tau_z
    1     1.000000     0.000000     1.000000     0.000000     0.000000     0.000000     0.000000     0.000000
 
 Subroutine IBZKPT returns following result:
 ===========================================
 
 Found      2 irreducible k-points:
 
 Following reciprocal coordinates:
            Coordinates               Weight
  0.250000  0.250000  0.000000      2.000000
 -0.250000  0.250000  0.000000      2.000000
 
 Following cartesian coordinates:
            Coordinates               Weight
  0.020453  0.011880  0.000000      2.000000
 -0.020453  0.035498  0.000000      2.000000
 


--------------------------------------------------------------------------------------------------------




 Dimension of arrays:
   k-points           NKPTS =      2   k-points in BZ     NKDIM =      2   number of bands    NBANDS=   1440
   number of dos      NEDOS =    301   number of ions     NIONS =    253
   non local maximal  LDIM  =      6   non local SUM 2l+1 LMDIM =     18
   total plane-waves  NPLWV = 786432
   max r-space proj   IRMAX =   3321   max aug-charges    IRDMAX=  59235
   dimension x,y,z NGX =    64 NGY =   64 NGZ =  192
   dimension x,y,z NGXF=   128 NGYF=  128 NGZF=  384
   support grid    NGXF=   256 NGYF=  256 NGZF=  768
   ions per type =              64   1 124  64
   NGX,Y,Z   is equivalent  to a cutoff of   8.70,  8.73,  9.12 a.u.
   NGXF,Y,Z  is equivalent  to a cutoff of  17.41, 17.46, 18.25 a.u.

 SYSTEM =  tin_ni_interf_surf_ni_sub_Nb            
 POSCAR =  Poscar file generated with pyiron       

 Startparameter for this run:
   NWRITE =      2    write-flag & timer
   PREC   = normal    normal or accurate (medium, high low for compatibility)
   ISTART =      0    job   : 0-new  1-cont  2-samecut
   ICHARG =      2    charge: 1-file 2-atom 10-const
   ISPIN  =      2    spin polarized calculation?
   LNONCOLLINEAR =      F non collinear calculations
   LSORBIT =      F    spin-orbit coupling
   INIWAV =      1    electr: 0-lowe 1-rand  2-diag
   LASPH  =      F    aspherical Exc in radial PAW
   METAGGA=      F    non-selfconsistent MetaGGA calc.

 Electronic Relaxation 1
   ENCUT  =  450.0 eV  33.07 Ry    5.75 a.u.  21.14 21.08 60.51*2*pi/ulx,y,z
   ENINI  =  450.0     initial cutoff
   ENAUG  =  627.1 eV  augmentation charge cutoff
   NELM   =    100;   NELMIN=  2; NELMDL= -5     # of ELM steps 
   EDIFF  = 0.1E-04   stopping-criterion for ELM
   LREAL  =      T    real-space projection
   NLSPLINE    = F    spline interpolate recip. space projectors
   LCOMPAT=      F    compatible to vasp.4.4
   GGA_COMPAT  = T    GGA compatible to vasp.4.4-vasp.4.6
   LMAXPAW     = -100 max onsite density
   LMAXMIX     =    2 max onsite mixed and CHGCAR
   VOSKOWN=      0    Vosko Wilk Nusair interpolation
   ROPT   =   -0.00050  -0.00050  -0.00050  -0.00050
 Ionic relaxation
   EDIFFG = 0.1E-02   stopping-criterion for IOM
   NSW    =    100    number of steps for IOM
   NBLOCK =      1;   KBLOCK =    100    inner block; outer block 
   IBRION =      1    ionic relax: 0-MD 1-quasi-New 2-CG
   NFREE  =      0    steps in history (QN), initial steepest desc. (CG)
   ISIF   =      2    stress and relaxation
   IWAVPR =     11    prediction:  0-non 1-charg 2-wave 3-comb
   ISYM   =      2    0-nonsym 1-usesym 2-fastsym
   LCORR  =      T    Harris-Foulkes like correction to forces

   POTIM  = 0.5000    time-step for ionic-motion
   TEIN   =    0.0    initial temperature
   TEBEG  =    0.0;   TEEND  =   0.0 temperature during run
   SMASS  =  -3.00    Nose mass-parameter (am)
   estimated Nose-frequenzy (Omega)   =  0.10E-29 period in steps =****** mass=  -0.341E-26a.u.
   SCALEE = 1.0000    scale energy and forces
   NPACO  =    256;   APACO  = 16.0  distance and # of slots for P.C.
   PSTRESS=    0.0 pullay stress

  Mass of Ions in am
   POMASS =  14.00 92.91 58.69 47.88
  Ionic Valenz
   ZVAL   =   5.00 13.00 10.00 12.00
  Atomic Wigner-Seitz radii
   RWIGS  =  -1.00 -1.00 -1.00 -1.00
  virtual crystal weights 
   VCA    =   1.00  1.00  1.00  1.00
   NELECT =    2341.0000    total number of electrons
   NUPDOWN=      -1.0000    fix difference up-down

 DOS related values:
   EMIN   =  10.00;   EMAX   =-10.00  energy-range for DOS
   EFERMI =   0.00
   ISMEAR =    -1;   SIGMA  =   0.20  broadening in eV -4-tet -1-fermi 0-gaus

 Electronic relaxation 2 (details)
   IALGO  =     38    algorithm
   LDIAG  =      T    sub-space diagonalisation (order eigenvalues)
   LSUBROT=      F    optimize rotation matrix (better conditioning)
   TURBO    =      0    0=normal 1=particle mesh
   IRESTART =      0    0=no restart 2=restart with 2 vectors
   NREBOOT  =      0    no. of reboots
   NMIN     =      0    reboot dimension
   EREF     =   0.00    reference energy to select bands
   IMIX   =      4    mixing-type and parameters
     AMIX     =   0.40;   BMIX     =  1.00
     AMIX_MAG =   1.60;   BMIX_MAG =  1.00
     AMIN     =   0.10
     WC   =   100.;   INIMIX=   1;  MIXPRE=   1;  MAXMIX= -45

 Intra band minimization:
   WEIMIN = 0.0010     energy-eigenvalue tresh-hold
   EBREAK =  0.17E-08  absolut break condition
   DEPER  =   0.30     relativ break condition  

   TIME   =   0.40     timestep for ELM

  volume/ion in A,a.u.               =      17.84       120.37
  Fermi-wavevector in a.u.,A,eV,Ry     =   1.315408  2.485761 23.542151  1.730299
  Thomas-Fermi vector in A             =   2.445593
 
 Write flags
   LWAVE        =      F    write WAVECAR
   LDOWNSAMPLE  =      F    k-point downsampling of WAVECAR
   LCHARG       =      T    write CHGCAR
   LVTOT        =      F    write LOCPOT, total local potential
   LVHAR        =      F    write LOCPOT, Hartree potential only
   LELF         =      F    write electronic localiz. function (ELF)
   LORBIT       =     11    0 simple, 1 ext, 2 COOP (PROOUT), +10 PAW based schemes


 Dipole corrections
   LMONO  =      F    monopole corrections only (constant potential shift)
   LDIPOL =      F    correct potential (dipole corrections)
   IDIPOL =      0    1-x, 2-y, 3-z, 4-all directions 
   EPSILON=  1.0000000 bulk dielectric constant

 Exchange correlation treatment:
   GGA     =    --    GGA type
   LEXCH   =     8    internal setting for exchange type
   VOSKOWN=      0    Vosko Wilk Nusair interpolation
   LHFCALC =     F    Hartree Fock is set to
   LHFONE  =     F    Hartree Fock one center treatment
   AEXX    =    0.0000 exact exchange contribution

 Linear response parameters
   LEPSILON=     F    determine dielectric tensor
   LRPA    =     F    only Hartree local field effects (RPA)
   LNABLA  =     F    use nabla operator in PAW spheres
   LVEL    =     F    velocity operator in full k-point grid
   LINTERFAST=   F  fast interpolation
   KINTER  =     0    interpolate to denser k-point grid
   CSHIFT  =0.1000    complex shift for real part using Kramers Kronig
   OMEGAMAX=  -1.0    maximum frequency
   DEG_THRESHOLD= 0.2000000E-02 threshold for treating states as degnerate
   RTIME   =   -0.100 relaxation time in fs
  (WPLASMAI=    0.000 imaginary part of plasma frequency in eV, 0.658/RTIME)
   DFIELD  = 0.0000000 0.0000000 0.0000000 field for delta impulse in time
 
 Orbital magnetization related:
   ORBITALMAG=     F  switch on orbital magnetization
   LCHIMAG   =     F  perturbation theory with respect to B field
   DQ        =  0.001000  dq finite difference perturbation B field
   LLRAUG    =     F  two centre corrections for induced B field



--------------------------------------------------------------------------------------------------------


 quasi-Newton-method for relaxation of ions
   using selective dynamics as specified on POSCAR
 charge density and potential will be updated during run
 spin polarized calculation
 Variant of blocked Davidson
 Davidson routine will perform the subspace rotation
 perform sub-space diagonalisation
    after iterative eigenvector-optimisation
 modified Broyden-mixing scheme, WC =      100.0
 initial mixing is a Kerker type mixing with AMIX =  0.4000 and BMIX =      1.0000
 Hartree-type preconditioning will be used
 using additional bands          269
 real space projection scheme for non local part
 use partial core corrections
 calculate Harris-corrections to forces 
   (improved forces if not selfconsistent)
 use gradient corrections 
 use of overlap-Matrix (Vanderbilt PP)
 Fermi-smearing in eV        SIGMA  =   0.20


--------------------------------------------------------------------------------------------------------


  energy-cutoff  :      450.00
  volume of cell :     4512.78
      direct lattice vectors                 reciprocal lattice vectors
    12.223000000  0.000000000  0.000000000     0.081812976 -0.047234743  0.000000000
     6.093000000 10.553385570  0.000000000     0.000000000  0.094756322  0.000000000
     0.000000000  0.000000000 34.984400850     0.000000000  0.000000000  0.028584168

  length of vectors
    12.223000000 12.186000000 34.984400850     0.094469487  0.094756322  0.028584168


 
 k-points in units of 2pi/SCALE and weight: Kpoints file generated with pyiron_atomi
   0.02045324  0.01188039  0.00000000       0.500
  -0.02045324  0.03549777  0.00000000       0.500
 
 k-points in reciprocal lattice and weights: Kpoints file generated with pyiron_atomi
   0.25000000  0.25000000  0.00000000       0.500
  -0.25000000  0.25000000  0.00000000       0.500
 
 position of ions in fractional coordinates (direct lattice) 
   0.12500000  0.12500000  0.05267780
   0.04166667  0.04166667  0.12291490
   0.20870870  0.20853306  0.19094453
   0.12481058  0.12469296  0.25407892
   0.12500000  0.37500000  0.05267780
   0.04166667  0.29166667  0.12291490
   0.20819216  0.45946713  0.19186577
   0.12524656  0.37546978  0.25505450
   0.12500000  0.62500000  0.05267780
   0.04166667  0.54166667  0.12291490
   0.20801729  0.70810040  0.19197842
   0.12571194  0.62604775  0.25921771
   0.12500000  0.87500000  0.05267780
   0.04166667  0.79166667  0.12291490
   0.20829970  0.95707845  0.19148025
   0.12553062  0.87149407  0.25749567
   0.37500000  0.12500000  0.05267780
   0.29166667  0.04166667  0.12291490
   0.45955620  0.20811052  0.19188503
   0.37568177  0.12506511  0.25507633
   0.37500000  0.37500000  0.05267780
   0.29166667  0.29166667  0.12291490
   0.45846480  0.45840245  0.19191367
   0.37735775  0.37734777  0.25881746
   0.37500000  0.62500000  0.05267780
   0.29166667  0.54166667  0.12291490
   0.45881482  0.70772743  0.19192968
   0.37762273  0.62187676  0.26061920
   0.37500000  0.87500000  0.05267780
   0.29166667  0.79166667  0.12291490
   0.46012190  0.95726704  0.19169100
   0.37653961  0.87265404  0.25631817
   0.62500000  0.12500000  0.05267780
   0.54166667  0.04166667  0.12291490
   0.70808112  0.20799032  0.19201220
   0.62624145  0.12548427  0.25931233
   0.62500000  0.37500000  0.05267780
   0.54166667  0.29166667  0.12291490
   0.70770031  0.45878401  0.19194814
   0.62180658  0.37759620  0.26063944
   0.62500000  0.62500000  0.05267780
   0.54166667  0.54166667  0.12291490
   0.70862748  0.70861644  0.19203722
   0.62394440  0.62401335  0.25985814
   0.62500000  0.87500000  0.05267780
   0.54166667  0.79166667  0.12291490
   0.70899146  0.95771839  0.19215714
   0.62815325  0.87264861  0.25926553
   0.87500000  0.12500000  0.05267780
   0.79166667  0.04166667  0.12291490
   0.95713527  0.20820963  0.19148899
   0.87171433  0.12536962  0.25747349
   0.87500000  0.37500000  0.05267780
   0.79166667  0.29166667  0.12291490
   0.95732639  0.45999635  0.19169854
   0.87268831  0.37643565  0.25628185
   0.87500000  0.62500000  0.05267780
   0.79166667  0.54166667  0.12291490
   0.95775252  0.70893897  0.19215756
   0.87270898  0.62804115  0.25923384
   0.87500000  0.87500000  0.05267780
   0.79166667  0.79166667  0.12291490
   0.95760913  0.95757080  0.19203712
   0.87411307  0.87405244  0.26070798
   0.33417468  0.73161217  0.30538741
   0.93178374  0.13349231  0.30564997
   0.99944391  0.99971310  0.36349844
   0.06651397  0.06650569  0.42209293
   0.93333333  0.13333333  0.48055316
   0.00000000  0.00000000  0.53861099
   0.93074121  0.33525541  0.30597641
   0.99958173  0.20011322  0.36376266
   0.06667385  0.26678292  0.42213627
   0.93333333  0.33333333  0.48055316
   0.00000000  0.20000000  0.53861099
   0.93271196  0.53443385  0.30513521
   0.99960621  0.40071957  0.36377230
   0.06653174  0.46718419  0.42203090
   0.93333333  0.53333333  0.48055316
   0.00000000  0.40000000  0.53861099
   0.93301867  0.73417199  0.30228113
   0.99963355  0.60087932  0.36313259
   0.06670827  0.66684656  0.42159350
   0.93333333  0.73333333  0.48055316
   0.00000000  0.60000000  0.53861099
   0.93270801  0.93332446  0.30417311
   0.00022053  0.79945209  0.36235289
   0.06639535  0.86648229  0.42176956
   0.93333333  0.93333333  0.48055316
   0.00000000  0.80000000  0.53861099
   0.13270657  0.13343257  0.30602235
   0.19984956  0.99985152  0.36374804
   0.26680756  0.06667651  0.42211878
   0.13333333  0.13333333  0.48055316
   0.20000000  0.00000000  0.53861099
   0.13280104  0.33555514  0.30591787
   0.20001473  0.20025207  0.36374669
   0.26677343  0.26683050  0.42210953
   0.13333333  0.33333333  0.48055316
   0.20000000  0.20000000  0.53861099
   0.13317061  0.53505255  0.30490669
   0.19982121  0.40084625  0.36375757
   0.26670578  0.46699836  0.42187170
   0.13333333  0.53333333  0.48055316
   0.20000000  0.40000000  0.53861099
   0.13403359  0.73324888  0.30187136
   0.20044628  0.60053772  0.36276426
   0.26652516  0.66670731  0.42181893
   0.13333333  0.73333333  0.48055316
   0.20000000  0.60000000  0.53861099
   0.13279937  0.93258315  0.30563638
   0.19974693  0.79957633  0.36325907
   0.26668026  0.86650152  0.42196575
   0.13333333  0.93333333  0.48055316
   0.20000000  0.80000000  0.53861099
   0.33500722  0.13339409  0.30589056
   0.40052287  0.99982139  0.36374914
   0.46711216  0.06659457  0.42202855
   0.33333333  0.13333333  0.48055316
   0.40000000  0.00000000  0.53861099
   0.33408638  0.33459402  0.30605409
   0.40059006  0.20004043  0.36375892
   0.46688017  0.26679217  0.42188423
   0.33333333  0.33333333  0.48055316
   0.40000000  0.20000000  0.53861099
   0.33458144  0.53341790  0.30317454
   0.40030186  0.40056674  0.36337154
   0.46653364  0.46672548  0.42199963
   0.33333333  0.53333333  0.48055316
   0.40000000  0.40000000  0.53861099
   0.40035442  0.59957822  0.36347774
   0.46675747  0.66663257  0.42195860
   0.33333333  0.73333333  0.48055316
   0.40000000  0.60000000  0.53861099
   0.33459613  0.93151983  0.30595590
   0.40037362  0.79958857  0.36361517
   0.46720744  0.86644799  0.42190234
   0.33333333  0.93333333  0.48055316
   0.40000000  0.80000000  0.53861099
   0.53460191  0.13363278  0.30490681
   0.60067579  0.99980229  0.36312801
   0.66682035  0.06672409  0.42162149
   0.53333333  0.13333333  0.48055316
   0.60000000  0.00000000  0.53861099
   0.53295113  0.33500036  0.30321690
   0.60026967  0.20058729  0.36283811
   0.66650576  0.26667887  0.42184457
   0.53333333  0.33333333  0.48055316
   0.60000000  0.20000000  0.53861099
   0.53253647  0.53314388  0.30301365
   0.59930660  0.40061254  0.36351392
   0.66650826  0.46682412  0.42197295
   0.53333333  0.53333333  0.48055316
   0.60000000  0.40000000  0.53861099
   0.53352418  0.73197229  0.30418220
   0.59964530  0.59991130  0.36325464
   0.66674820  0.66678553  0.42163387
   0.53333333  0.73333333  0.48055316
   0.60000000  0.60000000  0.53861099
   0.53398476  0.93326264  0.30507176
   0.60072601  0.79941775  0.36271335
   0.66711459  0.86648937  0.42151484
   0.53333333  0.93333333  0.48055316
   0.60000000  0.80000000  0.53861099
   0.73261246  0.13447413  0.30204470
   0.79928535  0.00038605  0.36240525
   0.86640597  0.06645606  0.42178978
   0.73333333  0.13333333  0.48055316
   0.80000000  0.00000000  0.53861099
   0.73088385  0.33478196  0.30542666
   0.79927489  0.19999808  0.36330752
   0.86642433  0.26666351  0.42199300
   0.73333333  0.33333333  0.48055316
   0.80000000  0.20000000  0.53861099
   0.73121795  0.53422160  0.30425176
   0.79932971  0.40055919  0.36363754
   0.86638229  0.46717875  0.42192206
   0.73333333  0.53333333  0.48055316
   0.80000000  0.40000000  0.53861099
   0.73298540  0.73346592  0.30046492
   0.79920871  0.60089925  0.36274147
   0.86639810  0.66717868  0.42152339
   0.73333333  0.73333333  0.48055316
   0.80000000  0.60000000  0.53861099
   0.73375237  0.93348579  0.30234488
   0.79971156  0.79985446  0.36180833
   0.86661392  0.86660140  0.42123752
   0.73333333  0.93333333  0.48055316
   0.80000000  0.80000000  0.53861099
   0.04166667  0.04166667  0.01755925
   0.20833333  0.20833333  0.08779635
   0.12477360  0.12465271  0.15807213
   0.04014937  0.04061493  0.23016200
   0.04166667  0.29166667  0.01755925
   0.20833333  0.45833333  0.08779635
   0.12504966  0.37568338  0.15815591
   0.03984427  0.29306578  0.22963533
   0.04166667  0.54166667  0.01755925
   0.20833333  0.70833333  0.08779635
   0.12482888  0.62528242  0.15807461
   0.04098394  0.54347504  0.23026780
   0.04166667  0.79166667  0.01755925
   0.20833333  0.95833333  0.08779635
   0.12509189  0.87425959  0.15815789
   0.04123378  0.79138276  0.22950516
   0.29166667  0.04166667  0.01755925
   0.45833333  0.20833333  0.08779635
   0.37578753  0.12497227  0.15815783
   0.29253856  0.04042623  0.22960350
   0.29166667  0.29166667  0.01755925
   0.45833333  0.45833333  0.08779635
   0.37553813  0.37545972  0.15805593
   0.29299790  0.29333456  0.22963852
   0.29166667  0.54166667  0.01755925
   0.45833333  0.70833333  0.08779635
   0.37520211  0.62460867  0.15804914
   0.29253812  0.54174837  0.22824422
   0.29166667  0.79166667  0.01755925
   0.45833333  0.95833333  0.08779635
   0.37570238  0.87379826  0.15810264
   0.29269236  0.78965036  0.22916482
   0.54166667  0.04166667  0.01755925
   0.70833333  0.20833333  0.08779635
   0.62532147  0.12475090  0.15808358
   0.54306173  0.04140694  0.23023687
   0.54166667  0.29166667  0.01755925
   0.70833333  0.45833333  0.08779635
   0.62460767  0.37516586  0.15805870
   0.54145682  0.29277799  0.22828488
   0.54166667  0.54166667  0.01755925
   0.70833333  0.70833333  0.08779635
   0.62498180  0.62498693  0.15803821
   0.54134688  0.54165398  0.22766191
   0.54166667  0.79166667  0.01755925
   0.70833333  0.95833333  0.08779635
   0.62542896  0.87474373  0.15807674
   0.54207937  0.79035117  0.22929992
   0.79166667  0.04166667  0.01755925
   0.95833333  0.20833333  0.08779635
   0.87427549  0.12502553  0.15817597
   0.79095723  0.04164343  0.22955028
   0.79166667  0.29166667  0.01755925
   0.95833333  0.45833333  0.08779635
   0.87378137  0.37565326  0.15812059
   0.78918157  0.29304949  0.22919854
   0.79166667  0.54166667  0.01755925
   0.95833333  0.70833333  0.08779635
   0.87482093  0.62537516  0.15808527
   0.78983663  0.54255716  0.22931805
   0.79166667  0.79166667  0.01755925
   0.95833333  0.95833333  0.08779635
   0.87488676  0.87488767  0.15789950
   0.79170044  0.79214028  0.22970093
 
 position of ions in cartesian coordinates  (Angst):
   2.28950000  1.31917320  1.84290127
   0.76316673  0.43972443  4.30010413
   3.82163837  2.20072979  6.68007998
   2.28531392  1.31593288  8.88879878
   3.81275000  3.95751959  1.84290127
   2.28641673  3.07807083  4.30010413
   5.34426599  4.84893378  6.71230901
   3.81862607  3.96247736  8.92292887
   5.33600000  6.59586598  1.84290127
   3.80966673  5.71641722  4.30010413
   6.85705107  7.47285654  6.71625000
   5.35108598  6.60692329  9.06857627
   6.85925000  9.23421237  1.84290127
   5.33291673  8.35476361  4.30010413
   8.37752623 10.10041790  6.69882182
   6.84437414  9.19721294  9.00833174
   5.34525000  1.31917320  1.84290127
   3.81891673  0.43972443  4.30010413
   6.88517283  2.19627056  6.71298281
   5.35397999  1.31986033  8.92369258
   6.86850000  3.95751959  1.84290127
   5.34216673  3.07807083  4.30010413
   8.39686138  4.83769780  6.71398476
   6.91162374  3.98229651  9.05457377
   8.39175000  6.59586598  1.84290127
   6.86541673  5.71641722  4.30010413
   9.92027678  7.46892045  6.71454486
   8.40477773  6.56290523  9.11760656
   9.91500000  9.23421237  1.84290127
   8.38866673  8.35476361  4.30010413
  11.45669806 10.10240817  6.70619478
   9.91952472  9.20945455  8.96713760
   8.40100000  1.31917320  1.84290127
   6.87466673  0.43972443  4.30010413
   9.92216055  2.19500204  6.71743177
   8.41912490  1.32428388  9.07188650
   9.92425000  3.95751959  1.84290127
   8.39791673  3.07807083  4.30010413
  11.44559186  4.84172455  6.71519067
   9.90103547  3.98491829  9.11831465
  11.44750000  6.59586598  1.84290127
   9.92116673  5.71641722  4.30010413
  12.97915366  7.47830251  6.71830708
  11.42858574  6.58545348  9.09098133
  12.97075000  9.23421237  1.84290127
  11.44441673  8.35476361  4.30010413
  14.50138077 10.10717144  6.72250241
  12.99496516  9.20939725  9.07024923
  11.45675000  1.31917320  1.84290127
   9.93041673  0.43972443  4.30010413
  12.96768568  2.19731650  6.69912758
  11.41884135  1.32307394  9.00755578
  12.98000000  3.95751959  1.84290127
  11.45366673  3.07807083  4.30010413
  14.50415823  4.85451884  6.70645857
  12.96049163  3.97267056  8.96586697
  14.50325000  6.59586598  1.84290127
  12.97691673  5.71641722  4.30010413
  16.02617420  7.48170630  6.72251711
  14.49377659  6.62796041  9.06914057
  16.02650000  9.23421237  1.84290127
  14.50016673  8.35476361  4.30010413
  17.53933528 10.10561386  6.71830358
  16.00988557  9.22421241  9.12071248
   8.54233007  7.72098532 10.68379557
  12.20256130  1.40879582 10.69298107
  18.30745483 10.55035780 12.71677513
   1.21821942  0.70186019 14.76666826
  12.22053327  1.40711804 16.81186438
   0.00000000  0.00000000 18.84298278
  13.41916102  3.53807961 10.70440138
  13.43717734  2.11187197 12.72601871
   2.44046280  2.81546302 14.76818448
  13.43913327  3.51779515 16.81186438
   1.21860000  2.11067711 18.84298278
  14.65684374  5.64008648 10.67497250
  14.65977104  4.22894813 12.72635596
   3.65977073  4.93037489 14.76449818
  14.65773327  5.62847227 16.81186438
   2.43720000  4.22135423 18.84298278
  15.87759714  7.74800009 10.57512422
  15.87967858  6.34131114 12.70397609
   4.87847127  7.03748886 14.74919600
  15.87633327  7.73914938 16.81186438
   3.65580000  6.33203134 18.84298278
  17.08723594  9.84973289 10.64131401
   4.87375712  8.43692615 12.67669875
   6.09102696  9.14432170 14.75535535
  17.09493327  9.84982650 16.81186438
   4.87440000  8.44270846 18.84298278
   2.43507705  1.40816536 10.70600856
   8.53485648 10.55181860 12.72550724
   3.66744878  0.70366292 14.76757261
   2.44213327  1.40711804 16.81186438
   2.44460000  0.00000000 18.84298278
   3.66776458  3.54124277 10.70235339
   3.66491591  2.11333731 12.72546001
   4.88656987  2.81596515 14.76724900
   3.66073327  3.51779515 16.81186438
   3.66320000  2.11067711 18.84298278
   4.88781955  5.64661586 10.66697786
   4.88477085  4.23028503 12.72584064
   6.10536576  4.92841375 14.75892866
   4.87933327  5.62847227 16.81186438
   4.88180000  4.22135423 18.84298278
   6.10597800  7.73825815 10.56078866
   6.10913121  6.33770611 12.69109029
   7.31998467  7.03601930 14.75708253
   6.09793327  7.73914938 16.81186438
   6.10040000  6.33203134 18.84298278
   7.30543583  9.84190956 10.69250563
   7.31332530  8.43823730 12.70840092
   8.53922658  9.14452464 14.76221894
   7.31653327  9.84982650 16.81186438
   7.31900000  8.44270846 18.84298278
   4.90756344  1.40775926 10.70139797
  10.98750277 10.55150063 12.72554572
   6.11527265  0.70279817 14.76441596
   4.88673327  1.40711804 16.81186438
   4.88920000  0.00000000 18.84298278
   6.12221919  3.53109970 10.70711897
   6.11525864  2.11110379 12.72588787
   7.33224101  2.81556064 14.75936701
   6.10533327  3.51779515 16.81186438
   6.10780000  2.11067711 18.84298278
   7.33970421  5.62936477 10.60637963
   7.33354278  4.22733525 12.71233561
   8.54619903  4.92553395 14.76340421
   7.32393327  5.62847227 16.81186438
   7.32640000  4.22135423 18.84298278
   8.54676217  6.32758014 12.71605096
   9.76696880  7.03523054 14.76196880
   8.54253327  7.73914938 16.81186438
   8.54500000  6.33203134 18.84298278
   9.76551882  9.83068793 10.70368385
   9.76565991  8.43836648 12.72085886
  10.98994414  9.14395971 14.76000058
   9.76113327  9.84982650 16.81186438
   9.76360000  8.44270846 18.84298278
   7.34866367  1.41027825 10.66698206
  13.43385553 10.55129906 12.70381586
   8.55709502  0.70416505 14.75017521
   7.33133327  1.40711804 16.81186438
   7.33380000  0.00000000 18.84298278
   8.55541886  3.53538797 10.60786157
   8.55927453  2.11687501 12.69367388
   9.77157426  2.81436494 14.75797953
   8.54993327  3.51779515 16.81186438
   8.55240000  2.11067711 18.84298278
   9.75763893  5.62647293 10.60075099
   9.76625678  4.22781860 12.71731669
  10.99108983  4.92657493 14.76247083
   9.76853327  5.62847227 16.81186438
   9.77100000  4.22135423 18.84298278
  10.98117322  7.72478580 10.64163202
  10.98472405  6.33109526 12.70824594
  12.21238748  7.03684479 14.75060832
  10.98713327  7.73914938 16.81186438
  10.98960000  6.33203134 18.84298278
  12.21326499  9.84908048 10.67275274
  12.21352637  8.43656375 12.68930923
  13.43366136  9.14439641 14.74644413
  12.20573327  9.84982650 16.81186438
  12.20820000  8.44270846 18.84298278
   9.77407297  1.41915734 10.56685286
   9.77201704  0.00407413 12.67853054
  10.99499694  0.70133642 14.75606274
   9.77593327  1.40711804 16.81186438
   9.77840000  0.00000000 18.84298278
  10.97341978  3.53308311 10.68516870
  10.98812528  2.11065685 12.71009591
  12.21508535  2.81420284 14.76317227
  10.99453327  3.51779515 16.81186438
  10.99700000  2.11067711 18.84298278
  12.19268921  5.63784652 10.64406553
  12.21081419  4.22725558 12.72164146
  13.43631085  4.93031748 14.76069047
  12.21313327  5.62847227 16.81186438
  12.21560000  4.22135423 18.84298278
  13.42828839  7.74054866 10.51158520
  13.43000719  6.34152147 12.69029299
  14.65510367  7.04099385 14.74674324
  13.43173327  7.73914938 16.81186438
  13.43420000  6.33203134 18.84298278
  14.65638414  9.85143547 10.57735448
  14.64838762  8.44117252 12.65764765
  15.87282427  9.14557871 14.73674225
  14.65033327  9.84982650 16.81186438
  14.65280000  8.44270846 18.84298278
   0.76316673  0.43972443  0.61429984
   3.81583327  2.19862196  3.07150270
   2.28461667  1.31550811  5.53005876
   0.73821252  0.42862502  8.05207967
   2.28641673  3.07807083  0.61429984
   5.33908327  4.83696835  3.07150270
   3.81752083  3.96473156  5.53298975
   2.27266631  3.09283617  8.03365443
   3.80966673  5.71641722  0.61429984
[...]
   9.91718061  5.71628330  7.96461552
  11.44441673  8.35476361  0.61429984
  14.49708327 10.11366114  3.07150270
  12.97443172  9.23150786  5.53022004
  11.44144582  8.34088063  8.02192032
   9.93041673  0.43972443  0.61429984
  12.98308327  2.19862196  3.07150270
  11.44804987  1.31944262  5.53369154
   9.92160364  0.43947917  8.03067901
  11.45366673  3.07807083  0.61429984
  14.50633327  4.83696835  3.07150270
  12.96908500  3.96441369  5.53175410
  11.43171687  3.09266426  8.01837360
  12.97691673  5.71641722  0.61429984
  16.02958327  7.47531474  3.07150270
  14.50334708  6.59982519  5.53051845
  12.95997390  5.72581490  8.02255458
  14.50016673  8.35476361  0.61429984
  17.55283327 10.11366114  3.07150270
  16.02443144  9.23302691  5.52401940
  14.50346520  8.35976180  8.03594941
 


--------------------------------------------------------------------------------------------------------


 k-point  1 :   0.2500 0.2500 0.0000  plane waves:   97791
 k-point  2 :  -0.2500 0.2500 0.0000  plane waves:   97880

 maximum and minimum number of plane-waves per node :     12248    12210

 maximum number of plane-waves:     97880
 maximum index in each direction: 
   IXMAX=   21   IYMAX=   20   IZMAX=   60
   IXMIN=  -21   IYMIN=  -21   IZMIN=  -60


 real space projection operators:
  total allocation   :      53766.06 KBytes
  max/ min on nodes  :       6784.39       6640.28


 parallel 3D FFT for wavefunctions:
    minimum data exchange during FFTs selected (reduces bandwidth)
 parallel 3D FFT for charge:
    minimum data exchange during FFTs selected (reduces bandwidth)


 total amount of memory used by VASP MPI-rank0   162412. kBytes
=======================================================================

   base      :      30000. kBytes
   nonlr-proj:      22379. kBytes
   fftplans  :      13344. kBytes
   grid      :      17358. kBytes
   one-center:        995. kBytes
   wavefun   :      78336. kBytes
 
     INWAV:  cpu time    0.0000: real time    0.0003
 Broyden mixing: mesh for mixing (old mesh)
   NGX = 43   NGY = 43   NGZ =121
  (NGX  =128   NGY  =128   NGZ  =384)
  gives a total of 223729 points

 initial charge density was supplied:
 charge density of overlapping atoms calculated
 number of electron    2341.0000000 magnetization      52.4870000
 keeping initial charge density in first step


--------------------------------------------------------------------------------------------------------


 Maximum index for non-local projection operator          389
 Maximum index for augmentation-charges         2786 (set IRDMAX)


--------------------------------------------------------------------------------------------------------


 First call to EWALD:  gamma=   0.107
 Maximum number of real-space cells 4x 4x 2
 Maximum number of reciprocal cells 2x 2x 5

    FEWALD:  cpu time    0.0121: real time    0.0121


--------------------------------------- Iteration      1(   1)  ---------------------------------------


    POTLOK:  cpu time    0.1670: real time    0.1680
    SETDIJ:  cpu time    0.1894: real time    0.1897
     EDDAV:  cpu time   44.0580: real time   44.5826
       DOS:  cpu time    0.0037: real time    0.0037
    --------------------------------------------
      LOOP:  cpu time   44.4181: real time   44.9440

 eigenvalue-minimisations  : 11700
 total energy-change (2. order) : 0.2963627E+05  (-0.9880534E+05)
 number of electron    2341.0000000 magnetization      52.4870000
 augmentation part     2341.0000000 magnetization      52.4870000

 Free energy of the ion-electron system (eV)
  ---------------------------------------------------
  alpha Z        PSCENC =      6806.08464712
  Ewald energy   TEWEN  =   1834731.68838615
  -Hartree energ DENC   =  -2082223.95392020
  -exchange      EXHF   =         0.00000000
  -V(xc)+E(xc)   XCENC  =      9248.29287136
  PAW double counting   =    214684.27959983  -221777.10816574
  entropy T*S    EENTRO =        -5.90993111
  eigenvalues    EBANDS =     14419.86231164
  atomic energy  EATOM  =    253753.03137376
  Solvation  Ediel_sol  =         0.00000000
  ---------------------------------------------------
  free energy    TOTEN  =     29636.26717282 eV

  energy without entropy =    29642.17710393  energy(sigma->0) =    29639.22213838


--------------------------------------------------------------------------------------------------------




--------------------------------------- Iteration      1(   2)  ---------------------------------------


     EDDAV:  cpu time   43.5290: real time   43.7967
       DOS:  cpu time    0.0016: real time    0.0016
    --------------------------------------------
      LOOP:  cpu time   43.5306: real time   43.7983

 eigenvalue-minimisations  : 11520
 total energy-change (2. order) :-0.2568507E+05  (-0.2459980E+05)
 number of electron    2341.0000000 magnetization      52.4870000
 augmentation part     2341.0000000 magnetization      52.4870000

 Free energy of the ion-electron system (eV)
  ---------------------------------------------------
  alpha Z        PSCENC =      6806.08464712
  Ewald energy   TEWEN  =   1834731.68838615
  -Hartree energ DENC   =  -2082223.95392020
  -exchange      EXHF   =         0.00000000
  -V(xc)+E(xc)   XCENC  =      9248.29287136
  PAW double counting   =    214684.27959983  -221777.10816574
  entropy T*S    EENTRO =       -14.41981976
  eigenvalues    EBANDS =    -11256.70208266
  atomic energy  EATOM  =    253753.03137376
  Solvation  Ediel_sol  =         0.00000000
  ---------------------------------------------------
  free energy    TOTEN  =      3951.19288986 eV

  energy without entropy =     3965.61270962  energy(sigma->0) =     3958.40279974


--------------------------------------------------------------------------------------------------------




--------------------------------------- Iteration      1(   3)  ---------------------------------------


     EDDAV:  cpu time   52.0868: real time   52.5500
       DOS:  cpu time    0.0010: real time    0.0010
    --------------------------------------------
      LOOP:  cpu time   52.0878: real time   52.5510

 eigenvalue-minimisations  : 14325
 total energy-change (2. order) :-0.5146290E+04  (-0.4754928E+04)
 number of electron    2341.0000000 magnetization      52.4870000
 augmentation part     2341.0000000 magnetization      52.4870000

 Free energy of the ion-electron system (eV)
  ---------------------------------------------------
  alpha Z        PSCENC =      6806.08464712
  Ewald energy   TEWEN  =   1834731.68838615
  -Hartree energ DENC   =  -2082223.95392020
  -exchange      EXHF   =         0.00000000
  -V(xc)+E(xc)   XCENC  =      9248.29287136
  PAW double counting   =    214684.27959983  -221777.10816574
  entropy T*S    EENTRO =       -33.05710401
  eigenvalues    EBANDS =    -16384.35476605
  atomic energy  EATOM  =    253753.03137376
  Solvation  Ediel_sol  =         0.00000000
  ---------------------------------------------------
  free energy    TOTEN  =     -1195.09707778 eV

  energy without entropy =    -1162.03997376  energy(sigma->0) =    -1178.56852577


--------------------------------------------------------------------------------------------------------




--------------------------------------- Iteration      1(   4)  ---------------------------------------


     EDDAV:  cpu time   61.7940: real time   62.2737
       DOS:  cpu time    0.0057: real time    0.0057
    --------------------------------------------
      LOOP:  cpu time   61.7997: real time   62.2794

 eigenvalue-minimisations  : 18000
 total energy-change (2. order) :-0.1065274E+04  (-0.1009835E+04)
 number of electron    2341.0000000 magnetization      52.4870000
 augmentation part     2341.0000000 magnetization      52.4870000

 Free energy of the ion-electron system (eV)
  ---------------------------------------------------
  alpha Z        PSCENC =      6806.08464712
  Ewald energy   TEWEN  =   1834731.68838615
  -Hartree energ DENC   =  -2082223.95392020
  -exchange      EXHF   =         0.00000000
  -V(xc)+E(xc)   XCENC  =      9248.29287136
  PAW double counting   =    214684.27959983  -221777.10816574
  entropy T*S    EENTRO =       -41.25043027
  eigenvalues    EBANDS =    -17441.43571575
  atomic energy  EATOM  =    253753.03137376
  Solvation  Ediel_sol  =         0.00000000
  ---------------------------------------------------
  free energy    TOTEN  =     -2260.37135373 eV

  energy without entropy =    -2219.12092346  energy(sigma->0) =    -2239.74613860


--------------------------------------------------------------------------------------------------------




--------------------------------------- Iteration      1(   5)  ---------------------------------------


     EDDAV:  cpu time   65.1352: real time   65.6407
       DOS:  cpu time    0.0016: real time    0.0016
    CHARGE:  cpu time    1.4486: real time    1.4535
    MIXING:  cpu time    0.0026: real time    0.0030
    --------------------------------------------
      LOOP:  cpu time   66.5881: real time   67.0988

 eigenvalue-minimisations  : 19155
 total energy-change (2. order) :-0.1136112E+03  (-0.1120364E+03)
 number of electron    2341.0000067 magnetization      52.3375742
 augmentation part      929.8018787 magnetization      43.8536081

 Broyden mixing:
  rms(total) = 0.19246E+02    rms(broyden)= 0.19244E+02
  rms(prec ) = 0.20703E+02
  weight for this iteration     100.00

 Free energy of the ion-electron system (eV)
  ---------------------------------------------------
  alpha Z        PSCENC =      6806.08464712
  Ewald energy   TEWEN  =   1834731.68838615
  -Hartree energ DENC   =  -2082223.95392020
  -exchange      EXHF   =         0.00000000
  -V(xc)+E(xc)   XCENC  =      9248.29287136
  PAW double counting   =    214684.27959983  -221777.10816574
  entropy T*S    EENTRO =       -42.45085556
  eigenvalues    EBANDS =    -17553.84650494
  atomic energy  EATOM  =    253753.03137376
  Solvation  Ediel_sol  =         0.00000000
  ---------------------------------------------------
  free energy    TOTEN  =     -2373.98256821 eV

  energy without entropy =    -2331.53171265  energy(sigma->0) =    -2352.75714043


--------------------------------------------------------------------------------------------------------




--------------------------------------- Iteration      1(   6)  ---------------------------------------


    POTLOK:  cpu time    0.1523: real time    0.1528
    SETDIJ:  cpu time    0.1877: real time    0.1881
     EDDAV:  cpu time   65.8577: real time   66.5568
       DOS:  cpu time    0.0071: real time    0.0071
    CHARGE:  cpu time    1.3624: real time    1.3651
    MIXING:  cpu time    0.0029: real time    0.0030
    --------------------------------------------
      LOOP:  cpu time   67.5702: real time   68.2728

 eigenvalue-minimisations  : 19005
 total energy-change (2. order) :-0.7215045E+04  (-0.3763512E+04)
 number of electron    2341.0000064 magnetization      52.2863520
 augmentation part     1132.3236366 magnetization      50.4515928

 Broyden mixing:
  rms(total) = 0.15758E+03    rms(broyden)= 0.15757E+03
  rms(prec ) = 0.17425E+03
  weight for this iteration     100.00

 eigenvalues of (default mixing * dielectric matrix)
  average eigenvalue GAMMA=   0.0026
  0.0026

 Free energy of the ion-electron system (eV)
  ---------------------------------------------------
  alpha Z        PSCENC =      6806.08464712
  Ewald energy   TEWEN  =   1834731.68838615
  -Hartree energ DENC   =  -2082307.11921435
  -exchange      EXHF   =         0.00000000
  -V(xc)+E(xc)   XCENC  =      9040.35883932
  PAW double counting   =    235989.67763937  -242445.35447158
  entropy T*S    EENTRO =        -8.62755345
  eigenvalues    EBANDS =    -25148.76711916
  atomic energy  EATOM  =    253753.03137376
  Solvation  Ediel_sol  =         0.00000000
  ---------------------------------------------------
  free energy    TOTEN  =     -9589.02747281 eV

  energy without entropy =    -9580.39991936  energy(sigma->0) =    -9584.71369608


--------------------------------------------------------------------------------------------------------




--------------------------------------- Iteration      1(   7)  ---------------------------------------


    POTLOK:  cpu time    0.1542: real time    0.1566
    SETDIJ:  cpu time    0.1881: real time    0.1887
     EDDAV:  cpu time   49.4239: real time   49.7036
       DOS:  cpu time    0.0038: real time    0.0038
    CHARGE:  cpu time    1.4480: real time    1.4504
    MIXING:  cpu time    0.0026: real time    0.0026
    --------------------------------------------
      LOOP:  cpu time   51.2207: real time   51.5057

 eigenvalue-minimisations  : 13515
 total energy-change (2. order) : 0.2247964E+04  (-0.1145712E+04)
 number of electron    2341.0000065 magnetization      51.9027459
 augmentation part     1135.9460455 magnetization      52.1461414

 Broyden mixing:
  rms(total) = 0.65526E+02    rms(broyden)= 0.65526E+02
  rms(prec ) = 0.94264E+02
  weight for this iteration     100.00

 eigenvalues of (default mixing * dielectric matrix)
  average eigenvalue GAMMA=   0.1770
  0.3150  0.0391

 Free energy of the ion-electron system (eV)
  ---------------------------------------------------
  alpha Z        PSCENC =      6806.08464712
  Ewald energy   TEWEN  =   1834731.68838615
  -Hartree energ DENC   =  -2081607.77387849
  -exchange      EXHF   =         0.00000000
  -V(xc)+E(xc)   XCENC  =      9039.99475128
  PAW double counting   =    237285.52962153  -243813.43019019
  entropy T*S    EENTRO =        -8.87270425
  eigenvalues    EBANDS =    -23527.31562568
  atomic energy  EATOM  =    253753.03137376
  Solvation  Ediel_sol  =         0.00000000
  ---------------------------------------------------
  free energy    TOTEN  =     -7341.06361877 eV

  energy without entropy =    -7332.19091452  energy(sigma->0) =    -7336.62726665


--------------------------------------------------------------------------------------------------------




--------------------------------------- Iteration      1(   8)  ---------------------------------------


    POTLOK:  cpu time    0.1517: real time    0.1521
    SETDIJ:  cpu time    0.1885: real time    0.1893
     EDDAV:  cpu time   69.0557: real time   69.8167
       DOS:  cpu time    0.0013: real time    0.0013
    CHARGE:  cpu time    1.4321: real time    1.4352
    MIXING:  cpu time    0.0027: real time    0.0027
    --------------------------------------------
      LOOP:  cpu time   70.8320: real time   71.5973

 eigenvalue-minimisations  : 20430
 total energy-change (2. order) :-0.1437394E+04  (-0.1323441E+05)
 number of electron    2341.0000063 magnetization      51.5316292
 augmentation part      842.2575701 magnetization      52.3873239

 Broyden mixing:
  rms(total) = 0.73719E+02    rms(broyden)= 0.73718E+02
  rms(prec ) = 0.13077E+03
  weight for this iteration     100.00

 eigenvalues of (default mixing * dielectric matrix)
  average eigenvalue GAMMA=   0.1167
  0.3052  0.0401  0.0047

 Free energy of the ion-electron system (eV)
  ---------------------------------------------------
  alpha Z        PSCENC =      6806.08464712
  Ewald energy   TEWEN  =   1834731.68838615
  -Hartree energ DENC   =  -2079499.48375881
  -exchange      EXHF   =         0.00000000
  -V(xc)+E(xc)   XCENC  =      9047.02695859
  PAW double counting   =    238012.21671427  -245044.51755613
  entropy T*S    EENTRO =       -15.72714334
  eigenvalues    EBANDS =    -26568.77682620
  atomic energy  EATOM  =    253753.03137376
  Solvation  Ediel_sol  =         0.00000000
  ---------------------------------------------------
  free energy    TOTEN  =     -8778.45720459 eV

  energy without entropy =    -8762.73006125  energy(sigma->0) =    -8770.59363292


--------------------------------------------------------------------------------------------------------




--------------------------------------- Iteration      1(   9)  ---------------------------------------


    POTLOK:  cpu time    0.1546: real time    0.1549
    SETDIJ:  cpu time    0.1881: real time    0.1884
     EDDAV:  cpu time   57.5989: real time   58.0929
       DOS:  cpu time    0.0036: real time    0.0036
    CHARGE:  cpu time    1.4670: real time    1.4700
    MIXING:  cpu time    0.0032: real time    0.0032
    --------------------------------------------
      LOOP:  cpu time   59.4154: real time   59.9130

 eigenvalue-minimisations  : 16185
 total energy-change (2. order) : 0.2983828E+04  (-0.2774813E+04)
 number of electron    2341.0000071 magnetization      51.2306158
 augmentation part      865.0670303 magnetization      42.9038701

 Broyden mixing:
  rms(total) = 0.56146E+02    rms(broyden)= 0.56146E+02
  rms(prec ) = 0.11368E+03
  weight for this iteration     100.00

 eigenvalues of (default mixing * dielectric matrix)
  average eigenvalue GAMMA=   0.1504
  0.3943  0.0804  0.0635  0.0635

 Free energy of the ion-electron system (eV)
  ---------------------------------------------------
  alpha Z        PSCENC =      6806.08464712
  Ewald energy   TEWEN  =   1834731.68838615
  -Hartree energ DENC   =  -2075605.92992592
  -exchange      EXHF   =         0.00000000
  -V(xc)+E(xc)   XCENC  =      9036.64404698
  PAW double counting   =    242965.06681408  -250069.82635893
  entropy T*S    EENTRO =       -31.90048158
  eigenvalues    EBANDS =    -27379.48810493
  atomic energy  EATOM  =    253753.03137376
  Solvation  Ediel_sol  =         0.00000000
  ---------------------------------------------------
  free energy    TOTEN  =     -5794.62960328 eV

  energy without entropy =    -5762.72912170  energy(sigma->0) =    -5778.67936249


--------------------------------------------------------------------------------------------------------




--------------------------------------- Iteration      1(  10)  ---------------------------------------


    POTLOK:  cpu time    0.1514: real time    0.1520
    SETDIJ:  cpu time    0.1882: real time    0.1884
     EDDAV:  cpu time   66.1407: real time   66.6570
       DOS:  cpu time    0.0046: real time    0.0046
    CHARGE:  cpu time    1.4543: real time    1.4572
    MIXING:  cpu time    0.0032: real time    0.0032
    --------------------------------------------
      LOOP:  cpu time   67.9424: real time   68.4623

 eigenvalue-minimisations  : 19455
 total energy-change (2. order) : 0.3448382E+04  (-0.9685547E+03)
 number of electron    2341.0000074 magnetization      51.0111696
 augmentation part     1015.3025408 magnetization      45.6279552

 Broyden mixing:
  rms(total) = 0.41623E+02    rms(broyden)= 0.41622E+02
  rms(prec ) = 0.55238E+02
  weight for this iteration     100.00

 eigenvalues of (default mixing * dielectric matrix)
  average eigenvalue GAMMA=   0.1560
  0.4099  0.1325  0.1325  0.0527  0.0527

 Free energy of the ion-electron system (eV)
  ---------------------------------------------------
  alpha Z        PSCENC =      6806.08464712
  Ewald energy   TEWEN  =   1834731.68838615
  -Hartree energ DENC   =  -2078236.59032896
  -exchange      EXHF   =         0.00000000
  -V(xc)+E(xc)   XCENC  =      9068.83270871
  PAW double counting   =    243455.07461749  -250501.54948356
  entropy T*S    EENTRO =       -27.74549077
  eigenvalues    EBANDS =    -21395.07382328
  atomic energy  EATOM  =    253753.03137376
  Solvation  Ediel_sol  =         0.00000000
  ---------------------------------------------------
  free energy    TOTEN  =     -2346.24739335 eV

  energy without entropy =    -2318.50190257  energy(sigma->0) =    -2332.37464796


--------------------------------------------------------------------------------------------------------




--------------------------------------- Iteration      1(  11)  ---------------------------------------


    POTLOK:  cpu time    0.1523: real time    0.1545
    SETDIJ:  cpu time    0.1894: real time    0.1899
Error EDDDAV: Call to ZHEGV failed. Returncode =  14 1  15
