bader_test                              
   1.00000000000000     
    10.000000    0.000000    0.000000
     0.000000   10.000000    0.000000
     0.000000    0.000000   10.000000
   H    O 
     2     1
Direct
  0.070000  0.070000  0.000000
  0.930000  0.070000  0.000000
  0.000000  0.000000  0.000000
 
   20   20   20
 0.20574536376E+07 0.28326597983E+01 -.53880191499E+00 0.38905105961E+00 -.33948594582E+00
 0.31725488204E+00 -.30562263987E+00 0.29904487837E+00 -.29527769895E+00 0.29331228958E+00
 -.29270013861E+00 0.29331228958E+00 -.29527769895E+00 0.29904487837E+00 -.30562263987E+00
 0.31725488204E+00 -.33948594582E+00 0.38905105961E+00 -.53880191499E+00 0.28326597983E+01
 0.28326597983E+01 0.33654491751E+00 -.10491258750E+00 0.77362717316E-01 -.68230558588E-01
 0.64132173092E-01 -.61987118704E-01 0.60773957291E-01 -.60079103569E-01 0.59716565819E-01
 -.59603645140E-01 0.59716565819E-01 -.60079103569E-01 0.60773957291E-01 -.61987118704E-01
 0.64132173092E-01 -.68230558588E-01 0.77362717316E-01 -.10491258750E+00 0.33654491751E+00
 -.53880191498E+00 -.10491258750E+00 0.30421148709E-01 -.21909851548E-01 0.19093365328E-01
 -.17830205780E-01 0.17169296070E-01 -.16795567523E-01 0.16581529980E-01 -.16469862450E-01
 0.16435085283E-01 -.16469862450E-01 0.16581529980E-01 -.16795567523E-01 0.17169296070E-01
 -.17830205780E-01 0.19093365328E-01 -.21909851548E-01 0.30421148709E-01 -.10491258750E+00
 0.38905105960E+00 0.77362717317E-01 -.21909851546E-01 0.15660766313E-01 -.13593798688E-01
 0.12666962121E-01 -.12182059632E-01 0.11907874494E-01 -.11750853893E-01 0.11668935577E-01
 -.11643420476E-01 0.11668935577E-01 -.11750853893E-01 0.11907874494E-01 -.12182059632E-01
 0.12666962121E-01 -.13593798688E-01 0.15660766313E-01 -.21909851546E-01 0.77362717317E-01
 -.33948594582E+00 -.68230558596E-01 0.19093365321E-01 -.13593798692E-01 0.11775155380E-01
 -.10959739777E-01 0.10533156984E-01 -.10291959281E-01 0.10153824306E-01 -.10081757364E-01
 0.10059314382E-01 -.10081757364E-01 0.10153824306E-01 -.10291959281E-01 0.10533156984E-01
 -.10959739777E-01 0.11775155380E-01 -.13593798692E-01 0.19093365321E-01 -.68230558596E-01
 0.31725488203E+00 0.64132173089E-01 -.17830205781E-01 0.12666962109E-01 -.10959739782E-01
 0.10194328409E-01 -.97939070468E-02 0.95675067033E-02 -.94378456069E-02 0.93702047073E-02
 -.93491355715E-02 0.93702047073E-02 -.94378456069E-02 0.95675067033E-02 -.97939070468E-02
 0.10194328409E-01 -.10959739782E-01 0.12666962109E-01 -.17830205781E-01 0.64132173089E-01
 -.30562263981E+00 -.61987118712E-01 0.17169296069E-01 -.12182059629E-01 0.10533156986E-01
 -.97939070573E-02 0.94071802341E-02 -.91885202503E-02 0.90632970755E-02 -.89979704568E-02
 0.89776269622E-02 -.89979704568E-02 0.90632970755E-02 -.91885202503E-02 0.94071802341E-02
 -.97939070573E-02 0.10533156986E-01 -.12182059629E-01 0.17169296069E-01 -.61987118712E-01
 0.29904487841E+00 0.60773957295E-01 -.16795567525E-01 0.11907874498E-01 -.10291959288E-01
 0.95675066979E-02 -.91885202537E-02 0.89742423186E-02 -.88515262384E-02 0.87875026356E-02
 -.87675648155E-02 0.87875026356E-02 -.88515262384E-02 0.89742423186E-02 -.91885202537E-02
 0.95675066979E-02 -.10291959288E-01 0.11907874498E-01 -.16795567525E-01 0.60773957295E-01
 -.29527769891E+00 -.60079103563E-01 0.16581529974E-01 -.11750853896E-01 0.10153824314E-01
 -.94378456005E-02 0.90632970725E-02 -.88515262358E-02 0.87302498092E-02 -.86669813152E-02
 0.86472753906E-02 -.86669813152E-02 0.87302498092E-02 -.88515262358E-02 0.90632970725E-02
 -.94378456005E-02 0.10153824314E-01 -.11750853896E-01 0.16581529974E-01 -.60079103563E-01
 0.29331228960E+00 0.59716565818E-01 -.16469862451E-01 0.11668935576E-01 -.10081757364E-01
 0.93702047008E-02 -.89979704569E-02 0.87875026194E-02 -.86669813156E-02 0.86041044346E-02
 -.85845200833E-02 0.86041044346E-02 -.86669813156E-02 0.87875026194E-02 -.89979704569E-02
 0.93702047008E-02 -.10081757364E-01 0.11668935576E-01 -.16469862451E-01 0.59716565818E-01
 -.29270013859E+00 -.59603645134E-01 0.16435085270E-01 -.11643420460E-01 0.10059314388E-01
 -.93491355608E-02 0.89776269834E-02 -.87675648141E-02 0.86472753817E-02 -.85845201101E-02
 0.85649623893E-02 -.85845201101E-02 0.86472753817E-02 -.87675648141E-02 0.89776269834E-02
 -.93491355608E-02 0.10059314388E-01 -.11643420460E-01 0.16435085270E-01 -.59603645134E-01
 0.29331228960E+00 0.59716565818E-01 -.16469862451E-01 0.11668935576E-01 -.10081757364E-01
 0.93702047008E-02 -.89979704569E-02 0.87875026194E-02 -.86669813156E-02 0.86041044346E-02
 -.85845200833E-02 0.86041044346E-02 -.86669813156E-02 0.87875026194E-02 -.89979704569E-02
 0.93702047008E-02 -.10081757364E-01 0.11668935576E-01 -.16469862451E-01 0.59716565818E-01
 -.29527769891E+00 -.60079103563E-01 0.16581529974E-01 -.11750853896E-01 0.10153824314E-01
 -.94378456005E-02 0.90632970725E-02 -.88515262358E-02 0.87302498092E-02 -.86669813152E-02
 0.86472753906E-02 -.86669813152E-02 0.87302498092E-02 -.88515262358E-02 0.90632970725E-02
 -.94378456005E-02 0.10153824314E-01 -.11750853896E-01 0.16581529974E-01 -.60079103563E-01
 0.29904487841E+00 0.60773957295E-01 -.16795567525E-01 0.11907874498E-01 -.10291959288E-01
 0.95675066979E-02 -.91885202537E-02 0.89742423186E-02 -.88515262384E-02 0.87875026356E-02
 -.87675648155E-02 0.87875026356E-02 -.88515262384E-02 0.89742423186E-02 -.91885202537E-02
 0.95675066979E-02 -.10291959288E-01 0.11907874498E-01 -.16795567525E-01 0.60773957295E-01
 -.30562263981E+00 -.61987118712E-01 0.17169296069E-01 -.12182059629E-01 0.10533156986E-01
 -.97939070573E-02 0.94071802341E-02 -.91885202503E-02 0.90632970755E-02 -.89979704568E-02
 0.89776269622E-02 -.89979704568E-02 0.90632970755E-02 -.91885202503E-02 0.94071802341E-02
 -.97939070573E-02 0.10533156986E-01 -.12182059629E-01 0.17169296069E-01 -.61987118712E-01
 0.31725488203E+00 0.64132173089E-01 -.17830205781E-01 0.12666962109E-01 -.10959739782E-01
 0.10194328409E-01 -.97939070468E-02 0.95675067033E-02 -.94378456069E-02 0.93702047073E-02
 -.93491355715E-02 0.93702047073E-02 -.94378456069E-02 0.95675067033E-02 -.97939070468E-02
 0.10194328409E-01 -.10959739782E-01 0.12666962109E-01 -.17830205781E-01 0.64132173089E-01
 -.33948594582E+00 -.68230558596E-01 0.19093365321E-01 -.13593798692E-01 0.11775155380E-01
 -.10959739777E-01 0.10533156984E-01 -.10291959281E-01 0.10153824306E-01 -.10081757364E-01
 0.10059314382E-01 -.10081757364E-01 0.10153824306E-01 -.10291959281E-01 0.10533156984E-01
 -.10959739777E-01 0.11775155380E-01 -.13593798692E-01 0.19093365321E-01 -.68230558596E-01
 0.38905105960E+00 0.77362717317E-01 -.21909851546E-01 0.15660766313E-01 -.13593798688E-01
 0.12666962121E-01 -.12182059632E-01 0.11907874494E-01 -.11750853893E-01 0.11668935577E-01
 -.11643420476E-01 0.11668935577E-01 -.11750853893E-01 0.11907874494E-01 -.12182059632E-01
 0.12666962121E-01 -.13593798688E-01 0.15660766313E-01 -.21909851546E-01 0.77362717317E-01
 -.53880191498E+00 -.10491258750E+00 0.30421148709E-01 -.21909851548E-01 0.19093365328E-01
 -.17830205780E-01 0.17169296070E-01 -.16795567523E-01 0.16581529980E-01 -.16469862450E-01
 0.16435085283E-01 -.16469862450E-01 0.16581529980E-01 -.16795567523E-01 0.17169296070E-01
 -.17830205780E-01 0.19093365328E-01 -.21909851548E-01 0.30421148709E-01 -.10491258750E+00
 0.28326597983E+01 0.33654491751E+00 -.10491258750E+00 0.77362717316E-01 -.68230558588E-01
 0.64132173092E-01 -.61987118704E-01 0.60773957291E-01 -.60079103569E-01 0.59716565819E-01
 -.59603645140E-01 0.59716565819E-01 -.60079103569E-01 0.60773957291E-01 -.61987118704E-01
 0.64132173092E-01 -.68230558588E-01 0.77362717316E-01 -.10491258750E+00 0.33654491751E+00
 0.28326597982E+01 0.33654491748E+00 -.10491258754E+00 0.77362717285E-01 -.68230558599E-01
 0.64132173078E-01 -.61987118699E-01 0.60773957287E-01 -.60079103581E-01 0.59716565811E-01
 -.59603645129E-01 0.59716565826E-01 -.60079103562E-01 0.60773957294E-01 -.61987118708E-01
 0.64132173077E-01 -.68230558573E-01 0.77362717347E-01 -.10491258747E+00 0.33654491753E+00
 0.33654491747E+00 0.58374238986E-01 -.19175465820E-01 0.14378642021E-01 -.12786234175E-01
 0.12071189543E-01 -.11696843591E-01 0.11485100214E-01 -.11363810485E-01 0.11300525701E-01
 -.11280816402E-01 0.11300525701E-01 -.11363810486E-01 0.11485100214E-01 -.11696843593E-01
 0.12071189547E-01 -.12786234175E-01 0.14378642019E-01 -.19175465822E-01 0.58374238989E-01
 -.10491258753E+00 -.19175465819E-01 0.59597046229E-02 -.43888026473E-02 0.38681529397E-02
 -.36345026460E-02 0.35122182814E-02 -.34430582875E-02 0.34034448298E-02 -.33827752976E-02
 0.33763367440E-02 -.33827752986E-02 0.34034448327E-02 -.34430582860E-02 0.35122182821E-02
 -.36345026451E-02 0.38681529409E-02 -.43888026473E-02 0.59597046241E-02 -.19175465819E-01
 0.77362717274E-01 0.14378642023E-01 -.43888026517E-02 0.32131665744E-02 -.28237018507E-02
 0.26489539922E-02 -.25575012552E-02 0.25057798771E-02 -.24761581051E-02 0.24607058970E-02
 -.24558928308E-02 0.24607058952E-02 -.24761581065E-02 0.25057798763E-02 -.25575012567E-02
 0.26489539963E-02 -.28237018523E-02 0.32131665758E-02 -.43888026509E-02 0.14378642021E-01
 -.68230558605E-01 -.12786234181E-01 0.38681529400E-02 -.28237018567E-02 0.24777750529E-02
 -.23225693157E-02 0.22413525262E-02 -.21954243741E-02 0.21691165052E-02 -.21553931756E-02
 0.21511187426E-02 -.21553931748E-02 0.21691165055E-02 -.21954243741E-02 0.22413525269E-02
 -.23225693073E-02 0.24777750513E-02 -.28237018565E-02 0.38681529406E-02 -.12786234183E-01
 0.64132173063E-01 0.12071189549E-01 -.36345026417E-02 0.26489539973E-02 -.23225693118E-02
 0.21761467542E-02 -.20995270941E-02 0.20561952597E-02 -.20313765751E-02 0.20184274555E-02
 -.20143957925E-02 0.20184274551E-02 -.20313765738E-02 0.20561952612E-02 -.20995270936E-02
 0.21761467643E-02 -.23225693111E-02 0.26489539948E-02 -.36345026444E-02 0.12071189549E-01
 -.61987118709E-01 -.11696843590E-01 0.35122182731E-02 -.25575012678E-02 0.22413525249E-02
 -.20995270983E-02 0.20253050588E-02 -.19833350062E-02 0.19592963897E-02 -.19467550350E-02
 0.19428502229E-02 -.19467550354E-02 0.19592963890E-02 -.19833350073E-02 0.20253050581E-02
 -.20995270961E-02 0.22413525226E-02 -.25575012609E-02 0.35122182803E-02 -.11696843592E-01
 0.60773957290E-01 0.11485100212E-01 -.34430582840E-02 0.25057798799E-02 -.21954243799E-02
 0.20561952662E-02 -.19833350089E-02 0.19421320199E-02 -.19185365350E-02 0.19062238506E-02
 -.19023864525E-02 0.19062238488E-02 -.19185365335E-02 0.19421320223E-02 -.19833350114E-02
 0.20561952652E-02 -.21954243791E-02 0.25057798784E-02 -.34430582864E-02 0.11485100213E-01
 -.60079103552E-01 -.11363810487E-01 0.34034448378E-02 -.24761581043E-02 0.21691165054E-02
 -.20313765750E-02 0.19592963869E-02 -.19185365320E-02 0.18951929036E-02 -.18830107731E-02
 0.18792173588E-02 -.18830107722E-02 0.18951929013E-02 -.19185365334E-02 0.19592963883E-02
 -.20313765724E-02 0.21691165070E-02 -.24761581050E-02 0.34034448362E-02 -.11363810486E-01
 0.59716565810E-01 0.11300525697E-01 -.33827752981E-02 0.24607058949E-02 -.21553931773E-02
 0.20184274598E-02 -.19467550363E-02 0.19062238497E-02 -.18830107736E-02 0.18709024445E-02
 -.18671265583E-02 0.18709024461E-02 -.18830107751E-02 0.19062238485E-02 -.19467550364E-02
 0.20184274544E-02 -.21553931801E-02 0.24607058978E-02 -.33827752954E-02 0.11300525695E-01
 -.59603645086E-01 -.11280816413E-01 0.33763367504E-02 -.24558928409E-02 0.21511187511E-02
 -.20143957796E-02 0.19428502175E-02 -.19023864445E-02 0.18792173671E-02 -.18671265651E-02
 0.18633628929E-02 -.18671265611E-02 0.18792173627E-02 -.19023864487E-02 0.19428502217E-02
 -.20143957879E-02 0.21511187492E-02 -.24558928353E-02 0.33763367558E-02 -.11280816415E-01
 0.59716565827E-01 0.11300525697E-01 -.33827752981E-02 0.24607058949E-02 -.21553931773E-02
 0.20184274598E-02 -.19467550363E-02 0.19062238497E-02 -.18830107736E-02 0.18709024445E-02
 -.18671265583E-02 0.18709024461E-02 -.18830107751E-02 0.19062238485E-02 -.19467550364E-02
 0.20184274544E-02 -.21553931801E-02 0.24607058978E-02 -.33827752954E-02 0.11300525695E-01
 -.60079103537E-01 -.11363810487E-01 0.34034448378E-02 -.24761581043E-02 0.21691165054E-02
 -.20313765750E-02 0.19592963869E-02 -.19185365320E-02 0.18951929036E-02 -.18830107731E-02
 0.18792173588E-02 -.18830107722E-02 0.18951929013E-02 -.19185365334E-02 0.19592963883E-02
 -.20313765724E-02 0.21691165070E-02 -.24761581050E-02 0.34034448362E-02 -.11363810486E-01
 0.60773957292E-01 0.11485100212E-01 -.34430582840E-02 0.25057798799E-02 -.21954243799E-02
 0.20561952662E-02 -.19833350089E-02 0.19421320199E-02 -.19185365350E-02 0.19062238506E-02
 -.19023864525E-02 0.19062238488E-02 -.19185365335E-02 0.19421320223E-02 -.19833350114E-02
 0.20561952652E-02 -.21954243791E-02 0.25057798784E-02 -.34430582864E-02 0.11485100213E-01
 -.61987118717E-01 -.11696843590E-01 0.35122182731E-02 -.25575012678E-02 0.22413525249E-02
 -.20995270983E-02 0.20253050588E-02 -.19833350062E-02 0.19592963897E-02 -.19467550350E-02
 0.19428502229E-02 -.19467550354E-02 0.19592963890E-02 -.19833350073E-02 0.20253050581E-02
 -.20995270961E-02 0.22413525226E-02 -.25575012609E-02 0.35122182803E-02 -.11696843592E-01
 0.64132173103E-01 0.12071189549E-01 -.36345026417E-02 0.26489539973E-02 -.23225693118E-02
 0.21761467542E-02 -.20995270941E-02 0.20561952597E-02 -.20313765751E-02 0.20184274555E-02
 -.20143957925E-02 0.20184274551E-02 -.20313765738E-02 0.20561952612E-02 -.20995270936E-02
 0.21761467643E-02 -.23225693111E-02 0.26489539948E-02 -.36345026444E-02 0.12071189549E-01
 -.68230558582E-01 -.12786234181E-01 0.38681529400E-02 -.28237018567E-02 0.24777750529E-02
 -.23225693157E-02 0.22413525262E-02 -.21954243741E-02 0.21691165052E-02 -.21553931756E-02
 0.21511187426E-02 -.21553931748E-02 0.21691165055E-02 -.21954243741E-02 0.22413525269E-02
 -.23225693073E-02 0.24777750513E-02 -.28237018565E-02 0.38681529406E-02 -.12786234183E-01
 0.77362717336E-01 0.14378642023E-01 -.43888026517E-02 0.32131665744E-02 -.28237018507E-02
 0.26489539922E-02 -.25575012552E-02 0.25057798771E-02 -.24761581051E-02 0.24607058970E-02
 -.24558928308E-02 0.24607058952E-02 -.24761581065E-02 0.25057798763E-02 -.25575012567E-02
 0.26489539963E-02 -.28237018523E-02 0.32131665758E-02 -.43888026509E-02 0.14378642021E-01
 -.10491258746E+00 -.19175465819E-01 0.59597046229E-02 -.43888026473E-02 0.38681529397E-02
 -.36345026460E-02 0.35122182814E-02 -.34430582875E-02 0.34034448298E-02 -.33827752976E-02
 0.33763367440E-02 -.33827752986E-02 0.34034448327E-02 -.34430582860E-02 0.35122182821E-02
 -.36345026451E-02 0.38681529409E-02 -.43888026473E-02 0.59597046241E-02 -.19175465819E-01
 0.33654491752E+00 0.58374238986E-01 -.19175465820E-01 0.14378642021E-01 -.12786234175E-01
 0.12071189543E-01 -.11696843591E-01 0.11485100214E-01 -.11363810485E-01 0.11300525701E-01
 -.11280816402E-01 0.11300525701E-01 -.11363810486E-01 0.11485100214E-01 -.11696843593E-01
 0.12071189547E-01 -.12786234175E-01 0.14378642019E-01 -.19175465822E-01 0.58374238989E-01
 -.53880191506E+00 -.10491258750E+00 0.30421148709E-01 -.21909851549E-01 0.19093365330E-01
 -.17830205770E-01 0.17169296071E-01 -.16795567526E-01 0.16581529978E-01 -.16469862451E-01
 0.16435085280E-01 -.16469862452E-01 0.16581529981E-01 -.16795567522E-01 0.17169296071E-01
 -.17830205786E-01 0.19093365330E-01 -.21909851546E-01 0.30421148711E-01 -.10491258750E+00
 -.10491258749E+00 -.19175465820E-01 0.59597046255E-02 -.43888026461E-02 0.38681529407E-02
 -.36345026449E-02 0.35122182800E-02 -.34430582875E-02 0.34034448303E-02 -.33827752960E-02
 0.33763367443E-02 -.33827752982E-02 0.34034448317E-02 -.34430582864E-02 0.35122182800E-02
 -.36345026397E-02 0.38681529417E-02 -.43888026494E-02 0.59597046224E-02 -.19175465821E-01
 0.30421148721E-01 0.59597046280E-02 -.17175425413E-02 0.12337134156E-02 -.10736433228E-02
 0.10018621064E-02 -.96429693938E-03 0.94305889153E-03 -.93090333367E-03 0.92455702071E-03
 -.92258431955E-03 0.92455702121E-03 -.93090333434E-03 0.94305889109E-03 -.96429693809E-03
 0.10018621082E-02 -.10736433231E-02 0.12337134161E-02 -.17175425410E-02 0.59597046269E-02
 -.21909851542E-01 -.43888026491E-02 0.12337134142E-02 -.87898448592E-03 0.76167970891E-03
 -.70908463643E-03 0.68157507071E-03 -.66601682248E-03 0.65710608035E-03 -.65245779502E-03
 0.65101024535E-03 -.65245779498E-03 0.65710607919E-03 -.66601682285E-03 0.68157506943E-03
 -.70908462866E-03 0.76167970777E-03 -.87898448506E-03 0.12337134142E-02 -.43888026489E-02
 0.19093365313E-01 0.38681529416E-02 -.10736433203E-02 0.76167970908E-03 -.65854562826E-03
 0.61231359120E-03 -.58812547076E-03 0.57444836137E-03 -.56661708076E-03 0.56252898675E-03
 -.56125514981E-03 0.56252898711E-03 -.56661708034E-03 0.57444836268E-03 -.58812547191E-03
 0.61231359507E-03 -.65854563070E-03 0.76167971032E-03 -.10736433199E-02 0.38681529407E-02
 -.17830205793E-01 -.36345026411E-02 0.10018621055E-02 -.70908463168E-03 0.61231359175E-03
 -.56893087449E-03 0.54623129228E-03 -.53340037968E-03 0.52604909621E-03 -.52221670473E-03
 0.52102315224E-03 -.52221670422E-03 0.52604909322E-03 -.53340038297E-03 0.54623129362E-03
 -.56893087149E-03 0.61231359053E-03 -.70908462728E-03 0.10018621102E-02 -.36345026432E-02
 0.17169296056E-01 0.35122182773E-02 -.96429694366E-03 0.68157507072E-03 -.58812547540E-03
 0.54623129744E-03 -.52431714245E-03 0.51192999586E-03 -.50483372731E-03 0.50112934995E-03
 -.49998151406E-03 0.50112934856E-03 -.50483372657E-03 0.51192999584E-03 -.52431714116E-03
 0.54623129077E-03 -.58812547205E-03 0.68157507134E-03 -.96429694229E-03 0.35122182780E-02
 -.16795567545E-01 -.34430582884E-02 0.94305889094E-03 -.66601682545E-03 0.57444835429E-03
 -.53340038201E-03 0.51192999585E-03 -.49978674988E-03 0.49283475372E-03 -.48920937855E-03
 0.48808028933E-03 -.48920937672E-03 0.49283475183E-03 -.49978675032E-03 0.51192999642E-03
 -.53340038285E-03 0.57444835728E-03 -.66601682960E-03 0.94305888533E-03 -.34430582841E-02
 0.16581529987E-01 0.34034448334E-02 -.93090333417E-03 0.65710607533E-03 -.56661707361E-03
 0.52604908886E-03 -.50483373777E-03 0.49283474774E-03 -.48596076139E-03 0.48238320240E-03
 -.48126423078E-03 0.48238320451E-03 -.48596076363E-03 0.49283474433E-03 -.50483373464E-03
 0.52604909346E-03 -.56661707310E-03 0.65710607598E-03 -.93090333236E-03 0.34034448329E-02
 -.16469862463E-01 -.33827752977E-02 0.92455702311E-03 -.65245779065E-03 0.56252898849E-03
 -.52221670801E-03 0.50112935124E-03 -.48920937941E-03 0.48238320469E-03 -.47881866202E-03
 0.47770964361E-03 -.47881866261E-03 0.48238320722E-03 -.48920937751E-03 0.50112934976E-03
 -.52221670483E-03 0.56252898666E-03 -.65245779131E-03 0.92455702308E-03 -.33827752987E-02
 0.16435085273E-01 0.33763367520E-02 -.92258431826E-03 0.65101023858E-03 -.56125515758E-03
 0.52102314111E-03 -.49998151393E-03 0.48808029654E-03 -.48126424059E-03 0.47770965284E-03
 -.47659466369E-03 0.47770965633E-03 -.48126424261E-03 0.48808029435E-03 -.49998151402E-03
 0.52102315185E-03 -.56125516109E-03 0.65101023905E-03 -.92258431762E-03 0.33763367521E-02
 -.16469862463E-01 -.33827752977E-02 0.92455702311E-03 -.65245779065E-03 0.56252898849E-03
 -.52221670801E-03 0.50112935124E-03 -.48920937941E-03 0.48238320469E-03 -.47881866202E-03
 0.47770964361E-03 -.47881866261E-03 0.48238320722E-03 -.48920937751E-03 0.50112934976E-03
 -.52221670483E-03 0.56252898666E-03 -.65245779131E-03 0.92455702308E-03 -.33827752987E-02
 0.16581529996E-01 0.34034448334E-02 -.93090333417E-03 0.65710607533E-03 -.56661707361E-03
 0.52604908886E-03 -.50483373777E-03 0.49283474774E-03 -.48596076139E-03 0.48238320240E-03
 -.48126423078E-03 0.48238320451E-03 -.48596076363E-03 0.49283474433E-03 -.50483373464E-03
 0.52604909346E-03 -.56661707310E-03 0.65710607598E-03 -.93090333236E-03 0.34034448329E-02
 -.16795567539E-01 -.34430582884E-02 0.94305889094E-03 -.66601682545E-03 0.57444835429E-03
 -.53340038201E-03 0.51192999585E-03 -.49978674988E-03 0.49283475372E-03 -.48920937855E-03
 0.48808028933E-03 -.48920937672E-03 0.49283475183E-03 -.49978675032E-03 0.51192999642E-03
 -.53340038285E-03 0.57444835728E-03 -.66601682960E-03 0.94305888533E-03 -.34430582841E-02
 0.17169296055E-01 0.35122182773E-02 -.96429694366E-03 0.68157507072E-03 -.58812547540E-03
 0.54623129744E-03 -.52431714245E-03 0.51192999586E-03 -.50483372731E-03 0.50112934995E-03
 -.49998151406E-03 0.50112934856E-03 -.50483372657E-03 0.51192999584E-03 -.52431714116E-03
 0.54623129077E-03 -.58812547205E-03 0.68157507134E-03 -.96429694229E-03 0.35122182780E-02
 -.17830205774E-01 -.36345026411E-02 0.10018621055E-02 -.70908463168E-03 0.61231359175E-03
 -.56893087449E-03 0.54623129228E-03 -.53340037968E-03 0.52604909621E-03 -.52221670473E-03
 0.52102315224E-03 -.52221670422E-03 0.52604909322E-03 -.53340038297E-03 0.54623129362E-03
 -.56893087149E-03 0.61231359053E-03 -.70908462728E-03 0.10018621102E-02 -.36345026432E-02
 0.19093365313E-01 0.38681529416E-02 -.10736433203E-02 0.76167970908E-03 -.65854562826E-03
 0.61231359120E-03 -.58812547076E-03 0.57444836137E-03 -.56661708076E-03 0.56252898675E-03
 -.56125514981E-03 0.56252898711E-03 -.56661708034E-03 0.57444836268E-03 -.58812547191E-03
 0.61231359507E-03 -.65854563070E-03 0.76167971032E-03 -.10736433199E-02 0.38681529407E-02
 -.21909851540E-01 -.43888026491E-02 0.12337134142E-02 -.87898448592E-03 0.76167970891E-03
 -.70908463643E-03 0.68157507071E-03 -.66601682248E-03 0.65710608035E-03 -.65245779502E-03
 0.65101024535E-03 -.65245779498E-03 0.65710607919E-03 -.66601682285E-03 0.68157506943E-03
 -.70908462866E-03 0.76167970777E-03 -.87898448506E-03 0.12337134142E-02 -.43888026489E-02
 0.30421148726E-01 0.59597046280E-02 -.17175425413E-02 0.12337134156E-02 -.10736433228E-02
 0.10018621064E-02 -.96429693938E-03 0.94305889153E-03 -.93090333367E-03 0.92455702071E-03
 -.92258431955E-03 0.92455702121E-03 -.93090333434E-03 0.94305889109E-03 -.96429693809E-03
 0.10018621082E-02 -.10736433231E-02 0.12337134161E-02 -.17175425410E-02 0.59597046269E-02
 -.10491258749E+00 -.19175465820E-01 0.59597046255E-02 -.43888026461E-02 0.38681529407E-02
 -.36345026449E-02 0.35122182800E-02 -.34430582875E-02 0.34034448303E-02 -.33827752960E-02
 0.33763367443E-02 -.33827752982E-02 0.34034448317E-02 -.34430582864E-02 0.35122182800E-02
 -.36345026397E-02 0.38681529417E-02 -.43888026494E-02 0.59597046224E-02 -.19175465821E-01
 0.38905105953E+00 0.77362717313E-01 -.21909851561E-01 0.15660766301E-01 -.13593798695E-01
 0.12666962119E-01 -.12182059632E-01 0.11907874493E-01 -.11750853897E-01 0.11668935573E-01
 -.11643420461E-01 0.11668935579E-01 -.11750853890E-01 0.11907874494E-01 -.12182059628E-01
 0.12666962118E-01 -.13593798684E-01 0.15660766325E-01 -.21909851532E-01 0.77362717326E-01
 0.77362717301E-01 0.14378642024E-01 -.43888026502E-02 0.32131665750E-02 -.28237018528E-02
 0.26489540027E-02 -.25575012557E-02 0.25057798767E-02 -.24761581058E-02 0.24607058982E-02
 -.24558928406E-02 0.24607058939E-02 -.24761581058E-02 0.25057798778E-02 -.25575012568E-02
 0.26489539896E-02 -.28237018515E-02 0.32131665747E-02 -.43888026516E-02 0.14378642022E-01
 -.21909851547E-01 -.43888026498E-02 0.12337134163E-02 -.87898448214E-03 0.76167970711E-03
 -.70908462780E-03 0.68157506922E-03 -.66601682331E-03 0.65710607949E-03 -.65245779375E-03
 0.65101023860E-03 -.65245779233E-03 0.65710607851E-03 -.66601682437E-03 0.68157507082E-03
 -.70908463500E-03 0.76167970739E-03 -.87898448507E-03 0.12337134134E-02 -.43888026497E-02
 0.15660766313E-01 0.32131665729E-02 -.87898448632E-03 0.62068173192E-03 -.53531621145E-03
 0.49704761180E-03 -.47702698590E-03 0.46570193532E-03 -.45922434128E-03 0.45584412831E-03
 -.45477830639E-03 0.45584412845E-03 -.45922434031E-03 0.46570193688E-03 -.47702698793E-03
 0.49704760883E-03 -.53531621140E-03 0.62068173002E-03 -.87898448882E-03 0.32131665751E-02
 -.13593798679E-01 -.28237018589E-02 0.76167970611E-03 -.53531620430E-03 0.46051043187E-03
 -.42698609002E-03 0.40944527441E-03 -.39953054986E-03 0.39385309285E-03 -.39088888333E-03
 0.38997448988E-03 -.39088888262E-03 0.39385309119E-03 -.39953055048E-03 0.40944527383E-03
 -.42698608604E-03 0.46051043174E-03 -.53531620551E-03 0.76167970386E-03 -.28237018578E-02
 0.12666962126E-01 0.26489539950E-02 -.70908462482E-03 0.49704761501E-03 -.42698609211E-03
 0.39558026966E-03 -.37915656857E-03 0.36987496752E-03 -.36455766645E-03 0.36178035921E-03
 -.36091779252E-03 0.36178036030E-03 -.36455766609E-03 0.36987496784E-03 -.37915657002E-03
 0.39558027623E-03 -.42698609186E-03 0.49704761262E-03 -.70908462717E-03 0.26489539978E-02
 -.12182059616E-01 -.25575012645E-02 0.68157507312E-03 -.47702699045E-03 0.40944527284E-03
 -.37915656501E-03 0.36331486969E-03 -.35436126812E-03 0.34923125977E-03 -.34655546900E-03
 0.34572360068E-03 -.34655546932E-03 0.34923126242E-03 -.35436126624E-03 0.36331486715E-03
 -.37915656665E-03 0.40944527190E-03 -.47702698898E-03 0.68157507536E-03 -.25575012632E-02
 0.11907874481E-01 0.25057798722E-02 -.66601682097E-03 0.46570193917E-03 -.39953055388E-03
 0.36987498273E-03 -.35436126588E-03 0.34559116452E-03 -.34056825449E-03 0.33794715792E-03
 -.33713047446E-03 0.33794715819E-03 -.34056825381E-03 0.34559116661E-03 -.35436126761E-03
 0.36987497801E-03 -.39953055483E-03 0.46570193591E-03 -.66601682564E-03 0.25057798733E-02
 -.11750853885E-01 -.24761581010E-02 0.65710607477E-03 -.45922434390E-03 0.39385308774E-03
 -.36455766337E-03 0.34923125745E-03 -.34056825954E-03 0.33560563847E-03 -.33301696591E-03
 0.33221108522E-03 -.33301696554E-03 0.33560563733E-03 -.34056826057E-03 0.34923126047E-03
 -.36455767602E-03 0.39385308996E-03 -.45922434031E-03 0.65710607825E-03 -.24761581015E-02
 0.11668935559E-01 0.24607058998E-02 -.65245779428E-03 0.45584412677E-03 -.39088887828E-03
 0.36178035784E-03 -.34655546688E-03 0.33794715834E-03 -.33301696936E-03 0.33044728272E-03
 -.32964769774E-03 0.33044728344E-03 -.33301696976E-03 0.33794715755E-03 -.34655546716E-03
 0.36178036333E-03 -.39088887824E-03 0.45584412619E-03 -.65245779448E-03 0.24607059008E-02
 -.11643420484E-01 -.24558928343E-02 0.65101023421E-03 -.45477830296E-03 0.38997450651E-03
 -.36091779193E-03 0.34572359323E-03 -.33713048289E-03 0.33221107878E-03 -.32964769556E-03
 0.32884738187E-03 -.32964769705E-03 0.33221108035E-03 -.33713048166E-03 0.34572358791E-03
 -.36091779605E-03 0.38997450095E-03 -.45477829964E-03 0.65101023787E-03 -.24558928360E-02
 0.11668935565E-01 0.24607058998E-02 -.65245779428E-03 0.45584412677E-03 -.39088887828E-03
 0.36178035784E-03 -.34655546688E-03 0.33794715834E-03 -.33301696936E-03 0.33044728272E-03
 -.32964769774E-03 0.33044728344E-03 -.33301696976E-03 0.33794715755E-03 -.34655546716E-03
 0.36178036333E-03 -.39088887824E-03 0.45584412619E-03 -.65245779448E-03 0.24607059008E-02
 -.11750853880E-01 -.24761581010E-02 0.65710607477E-03 -.45922434390E-03 0.39385308774E-03
 -.36455766337E-03 0.34923125745E-03 -.34056825954E-03 0.33560563847E-03 -.33301696591E-03
 0.33221108522E-03 -.33301696554E-03 0.33560563733E-03 -.34056826057E-03 0.34923126047E-03
 -.36455767602E-03 0.39385308996E-03 -.45922434031E-03 0.65710607825E-03 -.24761581015E-02
 0.11907874485E-01 0.25057798722E-02 -.66601682097E-03 0.46570193917E-03 -.39953055388E-03
 0.36987498273E-03 -.35436126588E-03 0.34559116452E-03 -.34056825449E-03 0.33794715792E-03
 -.33713047446E-03 0.33794715819E-03 -.34056825381E-03 0.34559116661E-03 -.35436126761E-03
 0.36987497801E-03 -.39953055483E-03 0.46570193591E-03 -.66601682564E-03 0.25057798733E-02
 -.12182059614E-01 -.25575012645E-02 0.68157507312E-03 -.47702699045E-03 0.40944527284E-03
 -.37915656501E-03 0.36331486969E-03 -.35436126812E-03 0.34923125977E-03 -.34655546900E-03
 0.34572360068E-03 -.34655546932E-03 0.34923126242E-03 -.35436126624E-03 0.36331486715E-03
 -.37915656665E-03 0.40944527190E-03 -.47702698898E-03 0.68157507536E-03 -.25575012632E-02
 0.12666962098E-01 0.26489539950E-02 -.70908462482E-03 0.49704761501E-03 -.42698609211E-03
 0.39558026966E-03 -.37915656857E-03 0.36987496752E-03 -.36455766645E-03 0.36178035921E-03
 -.36091779252E-03 0.36178036030E-03 -.36455766609E-03 0.36987496784E-03 -.37915657002E-03
 0.39558027623E-03 -.42698609186E-03 0.49704761262E-03 -.70908462717E-03 0.26489539978E-02
 -.13593798664E-01 -.28237018589E-02 0.76167970611E-03 -.53531620430E-03 0.46051043187E-03
 -.42698609002E-03 0.40944527441E-03 -.39953054986E-03 0.39385309285E-03 -.39088888333E-03
 0.38997448988E-03 -.39088888262E-03 0.39385309119E-03 -.39953055048E-03 0.40944527383E-03
 -.42698608604E-03 0.46051043174E-03 -.53531620551E-03 0.76167970386E-03 -.28237018578E-02
 0.15660766320E-01 0.32131665729E-02 -.87898448632E-03 0.62068173192E-03 -.53531621145E-03
 0.49704761180E-03 -.47702698590E-03 0.46570193532E-03 -.45922434128E-03 0.45584412831E-03
 -.45477830639E-03 0.45584412845E-03 -.45922434031E-03 0.46570193688E-03 -.47702698793E-03
 0.49704760883E-03 -.53531621140E-03 0.62068173002E-03 -.87898448882E-03 0.32131665751E-02
 -.21909851539E-01 -.43888026498E-02 0.12337134163E-02 -.87898448214E-03 0.76167970711E-03
 -.70908462780E-03 0.68157506922E-03 -.66601682331E-03 0.65710607949E-03 -.65245779375E-03
 0.65101023860E-03 -.65245779233E-03 0.65710607851E-03 -.66601682437E-03 0.68157507082E-03
 -.70908463500E-03 0.76167970739E-03 -.87898448507E-03 0.12337134134E-02 -.43888026497E-02
 0.77362717320E-01 0.14378642024E-01 -.43888026502E-02 0.32131665750E-02 -.28237018528E-02
 0.26489540027E-02 -.25575012557E-02 0.25057798767E-02 -.24761581058E-02 0.24607058982E-02
 -.24558928406E-02 0.24607058939E-02 -.24761581058E-02 0.25057798778E-02 -.25575012568E-02
 0.26489539896E-02 -.28237018515E-02 0.32131665747E-02 -.43888026516E-02 0.14378642022E-01
 -.33948594575E+00 -.68230558595E-01 0.19093365320E-01 -.13593798693E-01 0.11775155379E-01
 -.10959739777E-01 0.10533156987E-01 -.10291959283E-01 0.10153824305E-01 -.10081757364E-01
 0.10059314385E-01 -.10081757365E-01 0.10153824308E-01 -.10291959279E-01 0.10533156982E-01
 -.10959739779E-01 0.11775155375E-01 -.13593798689E-01 0.19093365322E-01 -.68230558595E-01
 -.68230558600E-01 -.12786234181E-01 0.38681529400E-02 -.28237018579E-02 0.24777750527E-02
 -.23225693103E-02 0.22413525290E-02 -.21954243742E-02 0.21691165055E-02 -.21553931769E-02