bader_test                              
   1.00000000000000     
    10.000000    0.000000    0.000000
     0.000000   10.000000    0.000000
     0.000000    0.000000   10.000000
   H    O 
     2     1
Direct
  0.070000  0.070000  0.000000
  0.930000  0.070000  0.000000
  0.000000  0.000000  0.000000
 
   20   20   20
 0.52980174562E+05 0.14699922089E+04 0.70980301701E+03 0.13942285256E+03 -.34225087699E+02
 0.27590606307E+02 0.51463789468E+02 -.17504596115E+02 -.50465039747E+02 0.64179508386E+01
 0.51197046884E+02 0.64179508386E+01 -.50465039747E+02 -.17504596115E+02 0.51463789468E+02
 0.27590606307E+02 -.34225087699E+02 0.13942285256E+03 0.70980301701E+03 0.14699922089E+04
 0.18067849783E+04 0.14166016074E+04 0.62726200067E+03 0.49684929284E+02 -.62759491028E+02
 0.57516165491E+02 0.77454213456E+02 -.32089380721E+02 -.76529584270E+02 0.10802715356E+02
 0.77148718156E+02 0.10802715356E+02 -.76529584270E+02 -.32089380721E+02 0.77454213456E+02
 0.57516165491E+02 -.62759491028E+02 0.49684929284E+02 0.62726200067E+03 0.14166016074E+04
 0.11308184021E+04 0.85883379745E+03 0.30738676665E+03 -.62541808208E+02 -.68505174716E+02
 0.67740253481E+02 0.75756969197E+02 -.35428926397E+02 -.75230485283E+02 0.11371710996E+02
 0.75499645687E+02 0.11371710996E+02 -.75230485283E+02 -.35428926397E+02 0.75756969197E+02
 0.67740253481E+02 -.68505174716E+02 -.62541808208E+02 0.30738676665E+03 0.85883379745E+03
 0.36556403350E+03 0.25277344362E+03 0.31017478662E+02 -.88959028728E+02 -.42611653486E+02
 0.44763092818E+02 0.43746615278E+02 -.22403342068E+02 -.43606408338E+02 0.69537442117E+01
 0.43599721973E+02 0.69537442117E+01 -.43606408338E+02 -.22403342068E+02 0.43746615278E+02
 0.44763092818E+02 -.42611653486E+02 -.88959028728E+02 0.31017478662E+02 0.25277344362E+03
 -.25699751417E+02 -.29999668894E+02 -.34473859415E+02 -.26010157459E+02 -.64246748113E+01
 0.78438073261E+01 0.60868086957E+01 -.36324433295E+01 -.60903481662E+01 0.10686649839E+01
 0.60443040658E+01 0.10686649839E+01 -.60903481662E+01 -.36324433295E+01 0.60868086957E+01
 0.78438073261E+01 -.64246748113E+01 -.26010157459E+02 -.34473859415E+02 -.29999668894E+02
 -.23775158053E+02 -.57532780200E+01 0.26263295749E+02 0.34225438139E+02 0.11444049393E+02
 -.12082604570E+02 -.10671742295E+02 0.59153204956E+01 0.10701918020E+02 -.17880992723E+01
 -.10666330136E+02 -.17880992723E+01 0.10701918020E+02 0.59153204956E+01 -.10671742295E+02
 -.12082604570E+02 0.11444049393E+02 0.34225438139E+02 0.26263295749E+02 -.57532780200E+01
 0.54707468105E+02 0.52682917175E+02 0.43912976859E+02 0.26056861587E+02 0.53861089853E+01
 -.63365417243E+01 -.44505161288E+01 0.29076069595E+01 0.44988845337E+01 -.83338885355E+00
 -.44474663172E+01 -.83338885355E+00 0.44988845337E+01 0.29076069595E+01 -.44505161288E+01
 -.63365417243E+01 0.53861089853E+01 0.26056861587E+02 0.43912976859E+02 0.52682917175E+02
 0.14130270970E+02 0.45589664391E+01 -.12588573626E+02 -.17290088685E+02 -.58439191844E+01
 0.62356034775E+01 0.55223975950E+01 -.30455957174E+01 -.55307058756E+01 0.92213533519E+00
 0.55133729108E+01 0.92213533519E+00 -.55307058756E+01 -.30455957174E+01 0.55223975950E+01
 0.62356034775E+01 -.58439191844E+01 -.17290088685E+02 -.12588573626E+02 0.45589664391E+01
 -.53968955551E+02 -.52074973284E+02 -.43590350592E+02 -.25967681978E+02 -.53753113585E+01
 0.63612677630E+01 0.44754526517E+01 -.29153153301E+01 -.45202032343E+01 0.83671809294E+00
 0.44698111434E+01 0.83671809294E+00 -.45202032343E+01 -.29153153301E+01 0.44754526517E+01
 0.63612677630E+01 -.53753113585E+01 -.25967681978E+02 -.43590350592E+02 -.52074973284E+02
 -.19884928742E+02 -.12955110291E+02 0.42189513865E+00 0.69789048852E+01 0.30079314820E+01
 -.30729485803E+01 -.29442890782E+01 0.15393221835E+01 0.29423713588E+01 -.47449125728E+00
 -.29395351810E+01 -.47449125728E+00 0.29423713588E+01 0.15393221835E+01 -.29442890782E+01
 -.30729485803E+01 0.30079314820E+01 0.69789048852E+01 0.42189513865E+00 -.12955110291E+02
 0.54771390673E+02 0.52687305491E+02 0.43810103355E+02 0.25923613946E+02 0.53253221936E+01
 -.63152316058E+01 -.44224217832E+01 0.28912310650E+01 0.44680798777E+01 -.82872408054E+00
 -.44171683285E+01 -.82872408054E+00 0.44680798777E+01 0.28912310650E+01 -.44224217832E+01
 -.63152316058E+01 0.53253221936E+01 0.25923613946E+02 0.43810103355E+02 0.52687305491E+02
 0.33996596274E+02 0.27212295422E+02 0.12669429660E+02 0.15072687984E+01 -.10984413521E+01
 0.84426605253E+00 0.12989525437E+01 -.50550623849E+00 -.12833845503E+01 0.17462043397E+00
 0.12961800609E+01 0.17462043397E+00 -.12833845503E+01 -.50550623849E+00 0.12989525437E+01
 0.84426605253E+00 -.10984413521E+01 0.15072687984E+01 0.12669429660E+02 0.27212295422E+02
 -.53953406242E+02 -.52068000909E+02 -.43598963568E+02 -.25981251004E+02 -.53797196687E+01
 0.63668368195E+01 0.44801784388E+01 -.29180555574E+01 -.45250471544E+01 0.83753076284E+00
 0.44746303696E+01 0.83753076284E+00 -.45250471544E+01 -.29180555574E+01 0.44801784388E+01
 0.63668368195E+01 -.53797196687E+01 -.25981251004E+02 -.43598963568E+02 -.52068000909E+02
 -.52966035763E+02 -.45453902813E+02 -.27824156217E+02 -.10459876465E+02 -.72380514478E+00
 0.13544296024E+01 0.23479100886E+00 -.49743640702E+00 -.26500077727E+00 0.11313847561E+00
 0.23508280841E+00 0.11313847561E+00 -.26500077727E+00 -.49743640702E+00 0.23479100886E+00
 0.13544296024E+01 -.72380514478E+00 -.10459876465E+02 -.27824156217E+02 -.45453902813E+02
 0.55337529012E+02 0.53133493618E+02 0.44004099337E+02 0.25936031611E+02 0.53119353252E+01
 -.62846898437E+01 -.43910671856E+01 0.28780863622E+01 0.44386165546E+01 -.82428897581E+00
 -.43874315318E+01 -.82428897581E+00 0.44386165546E+01 0.28780863622E+01 -.43910671856E+01
 -.62846898437E+01 0.53119353252E+01 0.25936031611E+02 0.44004099337E+02 0.53133493618E+02
 0.86613664401E+02 0.76274318837E+02 0.50644752985E+02 0.22271109398E+02 0.27449722867E+01
 -.38996541614E+01 -.18124275587E+01 0.16320625370E+01 0.18723539367E+01 -.42951976309E+00
 -.18163340048E+01 -.42951976309E+00 0.18723539367E+01 0.16320625370E+01 -.18124275587E+01
 -.38996541614E+01 0.27449722867E+01 0.22271109398E+02 0.50644752985E+02 0.76274318837E+02
 -.52161394602E+02 -.50595367291E+02 -.42816799997E+02 -.25747375849E+02 -.53118895749E+01
 0.64725529770E+01 0.45618110120E+01 -.29453775091E+01 -.45914313791E+01 0.84753116214E+00
 0.45419414599E+01 0.84753116214E+00 -.45914313791E+01 -.29453775091E+01 0.45618110120E+01
 0.64725529770E+01 -.53118895749E+01 -.25747375849E+02 -.42816799997E+02 -.50595367291E+02
 -.11445565116E+03 -.10668847364E+03 -.82424933719E+02 -.44713009571E+02 -.76853678140E+01
 0.10920029250E+02 0.69950671751E+01 -.47836133923E+01 -.70417740138E+01 0.13551325383E+01
 0.69497982756E+01 0.13551325383E+01 -.70417740138E+01 -.47836133923E+01 0.69950671751E+01
 0.10920029250E+02 -.76853678140E+01 -.44713009571E+02 -.82424933719E+02 -.10668847364E+03
 0.26169261704E+03 0.21235626736E+03 0.10542911488E+03 0.20341687338E+02 -.42348749000E+01
 0.58312808857E+01 0.85750761665E+01 -.31637858315E+01 -.83671653646E+01 0.11230867548E+01
 0.84801544133E+01 0.11230867548E+01 -.83671653646E+01 -.31637858315E+01 0.85750761665E+01
 0.58312808857E+01 -.42348749000E+01 0.20341687338E+02 0.10542911488E+03 0.21235626736E+03
 0.11021630916E+04 0.87176367749E+03 0.46357995576E+03 0.11818712549E+03 -.99076413762E+01
 0.66917630059E+01 0.22312502408E+02 -.55934063549E+01 -.21643924855E+02 0.23874156227E+01
 0.22134792983E+02 0.23874156227E+01 -.21643924855E+02 -.55934063549E+01 0.22312502408E+02
 0.66917630059E+01 -.99076413762E+01 0.11818712549E+03 0.46357995576E+03 0.87176367749E+03
 0.14396606403E+04 0.11216491793E+04 0.53722269962E+03 0.81132546872E+02 -.36347231911E+02
 0.32231578765E+02 0.49697297662E+02 -.18831173124E+02 -.48879942510E+02 0.65866902712E+01
 0.49433845960E+02 0.65866902712E+01 -.48879942510E+02 -.18831173124E+02 0.49697297662E+02
 0.32231578765E+02 -.36347231911E+02 0.81132546872E+02 0.53722269962E+03 0.11216491793E+04
 0.13706555659E+04 0.10829620134E+04 0.47294953592E+03 0.23935104273E+02 -.52812737441E+02
 0.49715421715E+02 0.64273642013E+02 -.27265671832E+02 -.63529732943E+02 0.90933901211E+01
 0.63993901792E+02 0.90933901211E+01 -.63529732943E+02 -.27265671832E+02 0.64273642013E+02
 0.49715421715E+02 -.52812737441E+02 0.23935104273E+02 0.47294953592E+03 0.10829620134E+04
 0.83636153526E+03 0.63826765266E+03 0.22948052809E+03 -.44572118029E+02 -.49921068464E+02
 0.49881980546E+02 0.55720739291E+02 -.26026680288E+02 -.55306554647E+02 0.83554541493E+01
 0.55503754282E+02 0.83554541493E+01 -.55306554647E+02 -.26026680288E+02 0.55720739291E+02
 0.49881980546E+02 -.49921068464E+02 -.44572118029E+02 0.22948052809E+03 0.63826765266E+03
 0.24213799011E+03 0.16776680711E+03 0.21467875226E+02 -.57908717198E+02 -.27743618496E+02
 0.29560615809E+02 0.28808050122E+02 -.14748215650E+02 -.28702803589E+02 0.45746558719E+01
 0.28693295246E+02 0.45746558719E+01 -.28702803589E+02 -.14748215650E+02 0.28808050122E+02
 0.29560615809E+02 -.27743618496E+02 -.57908717198E+02 0.21467875226E+02 0.16776680711E+03
 -.29819501219E+02 -.29497141690E+02 -.25964139704E+02 -.16126519518E+02 -.32920287461E+01
 0.43966236454E+01 0.31105584970E+01 -.19696497190E+01 -.31129821362E+01 0.56716429744E+00
 0.30776394293E+01 0.56716429744E+00 -.31129821362E+01 -.19696497190E+01 0.31105584970E+01
 0.43966236454E+01 -.32920287461E+01 -.16126519518E+02 -.25964139704E+02 -.29497141690E+02
 -.39989513542E+01 0.51700279117E+01 0.20656412550E+02 0.22075012663E+02 0.68775396776E+01
 -.73269716809E+01 -.62996767836E+01 0.35642852758E+01 0.63286198318E+01 -.10689865050E+01
 -.63001038690E+01 -.10689865050E+01 0.63286198318E+01 0.35642852758E+01 -.62996767836E+01
 -.73269716809E+01 0.68775396776E+01 0.22075012663E+02 0.20656412550E+02 0.51700279117E+01
 0.51966475196E+02 0.46889029506E+02 0.33370578675E+02 0.16378511427E+02 0.25956366537E+01
 -.32727767182E+01 -.19000131079E+01 0.14394209407E+01 0.19410140564E+01 -.39440853995E+00
 -.19013545192E+01 -.39440853995E+00 0.19410140564E+01 0.14394209407E+01 -.19000131079E+01
 -.32727767182E+01 0.25956366537E+01 0.16378511427E+02 0.33370578675E+02 0.46889029506E+02
 0.35297951649E+01 -.14186801916E+01 -.99077123813E+01 -.11104523599E+02 -.34978905578E+01
 0.37893350481E+01 0.32675619268E+01 -.18361519859E+01 -.32760617907E+01 0.55191119604E+00
 0.32621913770E+01 0.55191119604E+00 -.32760617907E+01 -.18361519859E+01 0.32675619268E+01
 0.37893350481E+01 -.34978905578E+01 -.11104523599E+02 -.99077123813E+01 -.14186801916E+01
 -.51358342724E+02 -.46390929794E+02 -.33111401210E+02 -.16311102301E+02 -.25875661286E+01
 0.32965562349E+01 0.19230302383E+01 -.14469058347E+01 -.19607049141E+01 0.39749688588E+00
 0.19218571344E+01 0.39749688588E+00 -.19607049141E+01 -.14469058347E+01 0.19230302383E+01
 0.32965562349E+01 -.25875661286E+01 -.16311102301E+02 -.33111401210E+02 -.46390929794E+02
 -.12019175317E+02 -.77067971399E+01 0.58192576220E+00 0.45453993070E+01 0.19145958606E+01
 -.19673369830E+01 -.18715615148E+01 0.98327139339E+00 0.18710859658E+01 -.30234824174E+00
 -.18685401591E+01 -.30234824174E+00 0.18710859658E+01 0.98327139339E+00 -.18715615148E+01
 -.19673369830E+01 0.19145958606E+01 0.45453993070E+01 0.58192576220E+00 -.77067971399E+01
 0.51961700832E+02 0.46850402780E+02 0.33274166285E+02 0.16275580378E+02 0.25494430421E+01
 -.32608993695E+01 -.18823601735E+01 0.14283657701E+01 0.19207547810E+01 -.39135308030E+00
 -.18815157448E+01 -.39135308030E+00 0.19207547810E+01 0.14283657701E+01 -.18823601735E+01
 -.32608993695E+01 0.25494430421E+01 0.16275580378E+02 0.33274166285E+02 0.46850402780E+02
 0.26091368653E+02 0.20749670364E+02 0.93670822687E+01 0.80087344117E+00 -.94676546642E+00
 0.76940157234E+00 0.10980246509E+01 -.44552922299E+00 -.10860305107E+01 0.15136054445E+00
 0.10955628600E+01 0.15136054445E+00 -.10860305107E+01 -.44552922299E+00 0.10980246509E+01
 0.76940157234E+00 -.94676546642E+00 0.80087344117E+00 0.93670822687E+01 0.20749670364E+02
 -.51351143618E+02 -.46388886612E+02 -.33118501224E+02 -.16320445377E+02 -.25904071880E+01
 0.33002999727E+01 0.19261285329E+01 -.14487297969E+01 -.19638836306E+01 0.39803655775E+00
 0.19250201268E+01 0.39803655775E+00 -.19638836306E+01 -.14487297969E+01 0.19261285329E+01
 0.33002999727E+01 -.25904071880E+01 -.16320445377E+02 -.33118501224E+02 -.46388886612E+02
 -.43898625220E+02 -.36827731431E+02 -.20827598154E+02 -.64305605093E+01 0.68546826742E-01
 0.38068203699E+00 -.43118451676E+00 -.56440591841E-01 0.40709037835E+00 -.13300314742E-01
 -.42978546879E+00 -.13300314742E-01 0.40709037835E+00 -.56440591841E-01 -.43118451676E+00
 0.38068203699E+00 0.68546826742E-01 -.64305605093E+01 -.20827598154E+02 -.36827731431E+02
 0.52439582684E+02 0.47227610748E+02 0.33439564788E+02 0.16288075129E+02 0.25394891464E+01
 -.32346949963E+01 -.18558242673E+01 0.14174879595E+01 0.18961364570E+01 -.38764494985E+00
 -.18566471503E+01 -.38764494985E+00 0.18961364570E+01 0.14174879595E+01 -.18558242673E+01
 -.32346949963E+01 0.25394891464E+01 0.16288075129E+02 0.33439564788E+02 0.47227610748E+02
 0.73774155791E+02 0.63037091930E+02 0.38034460546E+02 0.13855844536E+02 0.81370842453E+00
 -.16232236842E+01 -.11241627458E+00 0.57647628556E+00 0.16176998082E+00 -.12107646526E+00
 -.11897594088E+00 -.12107646526E+00 0.16176998082E+00 0.57647628556E+00 -.11241627458E+00
 -.16232236842E+01 0.81370842453E+00 0.13855844536E+02 0.38034460546E+02 0.63037091930E+02
 -.49745087641E+02 -.45046430888E+02 -.32356472248E+02 -.16046110684E+02 -.25032411015E+01
 0.33834179022E+01 0.19858513645E+01 -.14655713188E+01 -.20091946585E+01 0.40473582763E+00
 0.19712826056E+01 0.40473582763E+00 -.20091946585E+01 -.14655713188E+01 0.19858513645E+01
 0.33834179022E+01 -.25032411015E+01 -.16046110684E+02 -.32356472248E+02 -.45046430888E+02
 -.99754332364E+02 -.88766703958E+02 -.60688090840E+02 -.27796586742E+02 -.33684199988E+01
 0.58066814325E+01 0.29716470961E+01 -.23874740392E+01 -.30037710820E+01 0.64536878028E+00
 0.29341729611E+01 0.64536878028E+00 -.30037710820E+01 -.23874740392E+01 0.29716470961E+01
 0.58066814325E+01 -.33684199988E+01 -.27796586742E+02 -.60688090840E+02 -.88766703958E+02
 0.21872482020E+03 0.17559611307E+03 0.83107347401E+02 0.11958320087E+02 -.50839754530E+01
 0.64948670589E+01 0.85603245520E+01 -.34206241762E+01 -.83780584972E+01 0.11720762607E+01
 0.84654083885E+01 0.11720762607E+01 -.83780584972E+01 -.34206241762E+01 0.85603245520E+01
 0.64948670589E+01 -.50839754530E+01 0.11958320087E+02 0.83107347401E+02 0.17559611307E+03
 0.86545982367E+03 0.70469591955E+03 0.35371047958E+03 0.70684891812E+02 -.15945908980E+02
 0.14112347775E+02 0.25581645870E+02 -.87086092205E+01 -.25023581940E+02 0.31972726927E+01
 0.25397571714E+02 0.31972726927E+01 -.25023581940E+02 -.87086092205E+01 0.25581645870E+02
 0.14112347775E+02 -.15945908980E+02 0.70684891812E+02 0.35371047958E+03 0.70469591955E+03
 0.64658264240E+03 0.49561181619E+03 0.18322052260E+03 -.28435768358E+02 -.36399558066E+02
 0.37130126887E+02 0.41685749853E+02 -.19270438958E+02 -.41260858461E+02 0.62260735864E+01
 0.41449264430E+02 0.62260735864E+01 -.41260858461E+02 -.19270438958E+02 0.41685749853E+02
 0.37130126887E+02 -.36399558066E+02 -.28435768358E+02 0.18322052260E+03 0.49561181619E+03
 0.54246788434E+03 0.41600590850E+03 0.15427287296E+03 -.23214585438E+02 -.30176934606E+02
 0.31172699023E+02 0.34899616302E+02 -.16138189847E+02 -.34540363308E+02 0.52074562676E+01
 0.34688309985E+02 0.52074562676E+01 -.34540363308E+02 -.16138189847E+02 0.34899616302E+02
 0.31172699023E+02 -.30176934606E+02 -.23214585438E+02 0.15427287296E+03 0.41600590850E+03
 0.23994631655E+03 0.18450236789E+03 0.69604265313E+02 -.87143511108E+01 -.12517731858E+02
 0.13781716349E+02 0.15238085585E+02 -.70385816244E+01 -.15057958542E+02 0.22637842515E+01
 0.15110233956E+02 0.22637842515E+01 -.15057958542E+02 -.70385816244E+01 0.15238085585E+02
 0.13781716349E+02 -.12517731858E+02 -.87143511108E+01 0.69604265313E+02 0.18450236789E+03
 0.29122735832E+01 0.29284536551E+01 0.27463821866E+01 0.20386467241E+01 0.96049734484E+00
 0.11290207511E+00 -.10802587432E+00 0.69364618736E-01 0.14336884342E+00 -.29361113421E-01
 -.15670666479E+00 -.29361113421E-01 0.14336884342E+00 0.69364618736E-01 -.10802587432E+00
 0.11290207511E+00 0.96049734484E+00 0.20386467241E+01 0.27463821866E+01 0.29284536551E+01
 -.34002517647E+02 -.25655218235E+02 -.85189869607E+01 0.27264595156E+01 0.25045733393E+01
 -.20495932154E+01 -.23881840049E+01 0.11260157275E+01 0.23886489036E+01 -.36373695446E+00
 -.24017312301E+01 -.36373695446E+00 0.23886489036E+01 0.11260157275E+01 -.23881840049E+01
 -.20495932154E+01 0.25045733393E+01 0.27264595156E+01 -.85189869607E+01 -.25655218235E+02
 0.30904169086E+02 0.23720788950E+02 0.88352823414E+01 -.13037779765E+01 -.17680509236E+01
 0.16953364556E+01 0.19513986005E+01 -.88983073020E+00 -.19271105324E+01 0.29132947498E+00
 0.19404842900E+01 0.29132947498E+00 -.19271105324E+01 -.88983073020E+00 0.19513986005E+01
 0.16953364556E+01 -.17680509236E+01 -.13037779765E+01 0.88352823414E+01 0.23720788950E+02
 0.42020753646E+02 0.32125079518E+02 0.11671162238E+02 -.21248943478E+01 -.25276417447E+01
 0.23948740493E+01 0.27361433857E+01 -.12635573386E+01 -.27118815298E+01 0.41020521594E+00
 0.27270958495E+01 0.41020521594E+00 -.27118815298E+01 -.12635573386E+01 0.27361433857E+01
 0.23948740493E+01 -.25276417447E+01 -.21248943478E+01 0.11671162238E+02 0.32125079518E+02
 -.15312444065E+02 -.11706101877E+02 -.42492372273E+01 0.78660968649E+00 0.94163552572E+00
 -.85333256609E+00 -.98963694742E+00 0.45557141764E+00 0.98166074861E+00 -.14859817790E+00
 -.98810316707E+00 -.14859817790E+00 0.98166074861E+00 0.45557141764E+00 -.98963694742E+00
 -.85333256609E+00 0.94163552572E+00 0.78660968649E+00 -.42492372273E+01 -.11706101877E+02
 -.41695645085E+02 -.31863900886E+02 -.11545720828E+02 0.21489486719E+01 0.25307495086E+01
 -.23747468565E+01 -.27185564299E+01 0.12572154020E+01 0.26969172186E+01 -.40782796197E+00
 -.27117571142E+01 -.40782796197E+00 0.26969172186E+01 0.12572154020E+01 -.27185564299E+01
 -.23747468565E+01 0.25307495086E+01 0.21489486719E+01 -.11545720828E+02 -.31863900886E+02
 0.29007886793E+01 0.22181391525E+01 0.80568616990E+00 -.15038761602E+00 -.18286051181E+00
 0.15661005488E+00 0.18564380727E+00 -.84338461334E-01 -.18354046062E+00 0.27963604338E-01
 0.18532678005E+00 0.27963604338E-01 -.18354046062E+00 -.84338461334E-01 0.18564380727E+00
 0.15661005488E+00 -.18286051181E+00 -.15038761602E+00 0.80568616990E+00 0.22181391525E+01
 0.41891865598E+02 0.32011175059E+02 0.11593037470E+02 -.21659072468E+01 -.25443118666E+01
 0.23887744287E+01 0.27336248736E+01 -.12642303578E+01 -.27116484854E+01 0.41013301091E+00
 0.27266202077E+01 0.41013301091E+00 -.27116484854E+01 -.12642303578E+01 0.27336248736E+01
 0.23887744287E+01 -.25443118666E+01 -.21659072468E+01 0.11593037470E+02 0.32011175059E+02
 0.97003909697E+01 0.74081289090E+01 0.26737982756E+01 -.51004636361E+00 -.58744890221E+00
 0.56172806438E+00 0.63774735252E+00 -.29629783439E+00 -.63316976103E+00 0.95640867846E-01
 0.63606238699E+00 0.95640867846E-01 -.63316976103E+00 -.29629783439E+00 0.63774735252E+00
 0.56172806438E+00 -.58744890221E+00 -.51004636361E+00 0.26737982756E+01 0.74081289090E+01
 -.41703585969E+02 -.31870541534E+02 -.11549410324E+02 0.21479291019E+01 0.25309332611E+01
 -.23745497427E+01 -.27185980216E+01 0.12571699276E+01 0.26969549103E+01 -.40781737910E+00
 -.27117929339E+01 -.40781737910E+00 0.26969549103E+01 0.12571699276E+01 -.27185980216E+01
 -.23745497427E+01 0.25309332611E+01 0.21479291019E+01 -.11549410324E+02 -.31870541534E+02
 -.23703051477E+02 -.18108915488E+02 -.65502638168E+01 0.12348743999E+01 0.14427061841E+01
 -.13540436374E+01 -.15484589710E+01 0.71763627834E+00 0.15374547055E+01 -.23228125008E+00
 -.15452841218E+01 -.23228125008E+00 0.15374547055E+01 0.71763627834E+00 -.15484589710E+01
 -.13540436374E+01 0.14427061841E+01 0.12348743999E+01 -.65502638168E+01 -.18108915488E+02
 0.42173100839E+02 0.32234751431E+02 0.11694874038E+02 -.21531296889E+01 -.25466820445E+01
 0.24051246240E+01 0.27492861364E+01 -.12700551111E+01 -.27254149113E+01 0.41221567230E+00
 0.27405865780E+01 0.41221567230E+00 -.27254149113E+01 -.12700551111E+01 0.27492861364E+01
 0.24051246240E+01 -.25466820445E+01 -.21531296889E+01 0.11694874038E+02 0.32234751431E+02
 0.44031167362E+02 0.33673959696E+02 0.12262117186E+02 -.21906532229E+01 -.26313426934E+01
 0.25067267554E+01 0.28615578229E+01 -.13204953548E+01 -.28352117327E+01 0.42852063619E+00
 0.28507084910E+01 0.42852063619E+00 -.28352117327E+01 -.13204953548E+01 0.28615578229E+01
 0.25067267554E+01 -.26313426934E+01 -.21906532229E+01 0.12262117186E+02 0.33673959696E+02
 -.40527243256E+02 -.30841512713E+02 -.10867872573E+02 0.24798188166E+01 0.26483016519E+01
 -.23369395482E+01 -.27018609319E+01 0.12603356495E+01 0.26924339718E+01 -.40747421337E+00
 -.27063049986E+01 -.40747421337E+00 0.26924339718E+01 0.12603356495E+01 -.27018609319E+01
 -.23369395482E+01 0.26483016519E+01 0.24798188166E+01 -.10867872573E+02 -.30841512713E+02
 -.63916140184E+02 -.48455278297E+02 -.16625045736E+02 0.45012643788E+01 0.45001395523E+01
 -.36763043728E+01 -.43296492739E+01 0.20250205089E+01 0.43276561393E+01 -.65525101932E+00
 -.43511587806E+01 -.65525101932E+00 0.43276561393E+01 0.20250205089E+01 -.43296492739E+01
 -.36763043728E+01 0.45001395523E+01 0.45012643788E+01 -.16625045736E+02 -.48455278297E+02
 0.12262161380E+03 0.94507268924E+02 0.36175192858E+02 -.37743298575E+01 -.60486327917E+01
 0.70238080724E+01 0.77014104840E+01 -.35332778199E+01 -.75789999880E+01 0.11428789268E+01
 0.76131415616E+01 0.11428789268E+01 -.75789999880E+01 -.35332778199E+01 0.77014104840E+01
 0.70238080724E+01 -.60486327917E+01 -.37743298575E+01 0.36175192858E+02 0.94507268924E+02
 0.44732226259E+03 0.34307620244E+03 0.12730547150E+03 -.19057169076E+02 -.24868341580E+02
 0.25666273195E+02 0.28756908111E+02 -.13277845099E+02 -.28442551555E+02 0.42930148648E+01
 0.28575717106E+02 0.42930148648E+01 -.28442551555E+02 -.13277845099E+02 0.28756908111E+02
 0.25666273195E+02 -.24868341580E+02 -.19057169076E+02 0.12730547150E+03 0.34307620244E+03
 0.77331184466E+02 0.32583421880E+02 -.48605652468E+02 -.73960106401E+02 -.25156850641E+02
 0.28207848979E+02 0.24923941113E+02 -.13570608641E+02 -.24810735876E+02 0.41354556159E+01
 0.24759434144E+02 0.41354556159E+01 -.24810735876E+02 -.13570608641E+02 0.24923941113E+02
 0.28207848979E+02 -.25156850641E+02 -.73960106401E+02 -.48605652468E+02 0.32583421880E+02
 -.36132216066E+02 -.43264723673E+02 -.51289148207E+02 -.39237922654E+02 -.95112173149E+01
 0.12365041852E+02 0.95375115115E+01 -.56203214282E+01 -.94677917237E+01 0.16676917603E+01
 0.94130392482E+01 0.16676917603E+01 -.94677917237E+01 -.56203214282E+01 0.95375115115E+01
 0.12365041852E+02 -.95112173149E+01 -.39237922654E+02 -.51289148207E+02 -.43264723673E+02
 -.13061659701E+03 -.97927993107E+02 -.31082162772E+02 0.12103307055E+02 0.10075954457E+02
 -.84550423966E+01 -.96430709487E+01 0.46072806550E+01 0.96595468426E+01 -.14731466147E+01
 -.96951269660E+01 -.14731466147E+01 0.96595468426E+01 0.46072806550E+01 -.96430709487E+01
 -.84550423966E+01 0.10075954457E+02 0.12103307055E+02 -.31082162772E+02 -.97927993107E+02
 -.11709661881E+03 -.79984673462E+02 -.72504991082E+01 0.31443137746E+02 0.15038138100E+02
 -.14607833402E+02 -.14505331970E+02 0.74462380311E+01 0.14499315136E+02 -.23185812525E+01
 -.14510050183E+02 -.23185812525E+01 0.14499315136E+02 0.74462380311E+01 -.14505331970E+02
 -.14607833402E+02 0.15038138100E+02 0.31443137746E+02 -.72504991082E+01 -.79984673462E+02
 -.25551202651E+02 -.15771864913E+02 0.28673528925E+01 0.11335770495E+02 0.46462456405E+01
 -.46303092062E+01 -.43968729936E+01 0.23254717374E+01 0.44006513704E+01 -.71647674140E+00
 -.43983684267E+01 -.71647674140E+00 0.44006513704E+01 0.23254717374E+01 -.43968729936E+01
 -.46303092062E+01 0.46462456405E+01 0.11335770495E+02 0.28673528925E+01 -.15771864913E+02
 0.38887320358E+02 0.25742381841E+02 0.25468034490E+00 -.12555246005E+02 -.55346705305E+01
 0.56786525955E+01 0.54707115902E+01 -.28387340413E+01 -.54551354063E+01 0.88065409407E+00
 0.54569246145E+01 0.88065409407E+00 -.54551354063E+01 -.28387340413E+01 0.54707115902E+01
 0.56786525955E+01 -.55346705305E+01 -.12555246005E+02 0.25468034490E+00 0.25742381841E+02
 0.24165627160E+02 0.14904879366E+02 -.27291435812E+01 -.10697353820E+02 -.43053808481E+01
 0.44863582639E+01 0.42083535703E+01 -.22231865897E+01 -.41993619269E+01 0.68544438886E+00
 0.41977216318E+01 0.68544438886E+00 -.41993619269E+01 -.22231865897E+01 0.42083535703E+01
 0.44863582639E+01 -.43053808481E+01 -.10697353820E+02 -.27291435812E+01 0.14904879366E+02
 -.20029886509E+02 -.13258409798E+02 -.12643773114E+00 0.64791517347E+01 0.28694424977E+01
 -.29077999674E+01 -.28106156788E+01 0.14593933037E+01 0.28053887605E+01 -.45255926622E+00
 -.28061171730E+01 -.45255926622E+00 0.28053887605E+01 0.14593933037E+01 -.28106156788E+01
 -.29077999674E+01 0.28694424977E+01 0.64791517347E+01 -.12643773114E+00 -.13258409798E+02
 -.24067900448E+02 -.14830285562E+02 0.27569810501E+01 0.10696152739E+02 0.43067734684E+01
 -.44731943095E+01 -.41982898711E+01 0.22193915754E+01 0.41911558867E+01 -.68410618095E+00
 -.41894240957E+01 -.68410618095E+00 0.41911558867E+01 0.22193915754E+01 -.41982898711E+01
 -.44731943095E+01 0.43067734684E+01 0.10696152739E+02 0.27569810501E+01 -.14830285562E+02
 0.94776241663E+01 0.65071500896E+01 0.67716284509E+00 -.24476518577E+01 -.11745771324E+01
 0.11691608321E+01 0.11563319252E+01 -.59162055928E+00 -.11535403429E+01 0.18435071118E+00
 0.11543996754E+01 0.18435071118E+00 -.11535403429E+01 -.59162055928E+00 0.11563319252E+01
 0.11691608321E+01 -.11745771324E+01 -.24476518577E+01 0.67716284509E+00 0.65071500896E+01
 0.24000826541E+02 0.14776752753E+02 -.27814558724E+01 -.10698276066E+02 -.43036964782E+01
 0.44721733415E+01 0.41959552272E+01 -.22184650902E+01 -.41887319387E+01 0.68378476842E+00
 0.41869709973E+01 0.68378476842E+00 -.41887319387E+01 -.22184650902E+01 0.41959552272E+01
 0.44721733415E+01 -.43036964782E+01 -.10698276066E+02 -.27814558724E+01 0.14776752753E+02
 -.14860131581E+01 -.15459544477E+01 -.14950554919E+01 -.10060330788E+01 -.22598590594E+00
 0.28399214752E+00 0.21038522591E+00 -.12995438482E+00 -.21088916438E+00 0.38186465016E-01
 0.20957723329E+00 0.38186465016E-01 -.21088916438E+00 -.12995438482E+00 0.21038522591E+00
 0.28399214752E+00 -.22598590594E+00 -.10060330788E+01 -.14950554919E+01 -.15459544477E+01
 -.24080575530E+02 -.14838899308E+02 0.27563122870E+01 0.10699671697E+02 0.43084375054E+01
 -.44748027547E+01 -.41998679692E+01 0.22202457006E+01 0.41927773823E+01 -.68436108962E+00
 -.41910343901E+01 -.68436108962E+00 0.41927773823E+01 0.22202457006E+01 -.41998679692E+01
 -.44748027547E+01 0.43084375054E+01 0.10699671697E+02 0.27563122870E+01 -.14838899308E+02
 -.63003666747E+01 -.31717217265E+01 0.25990237379E+01 0.46792452251E+01 0.16834521844E+01
 -.18006886235E+01 -.16273128648E+01 0.88204517477E+00 0.16263044124E+01 -.26973353100E+00
 -.16242752274E+01 -.26973353100E+00 0.16263044124E+01 0.88204517477E+00 -.16273128648E+01
 -.18006886235E+01 0.16834521844E+01 0.46792452251E+01 0.25990237379E+01 -.31717217265E+01
 0.24111175749E+02 0.14866880927E+02 -.27347505991E+01 -.10685299309E+02 -.42998077976E+01
 0.44794915967E+01 0.42018594286E+01 -.22199255079E+01 -.41929820818E+01 0.68444828370E+00
 0.41913783313E+01 0.68444828370E+00 -.41929820818E+01 -.22199255079E+01 0.42018594286E+01
 0.44794915967E+01 -.42998077976E+01 -.10685299309E+02 -.27347505991E+01 0.14866880927E+02
 0.15629905573E+02 0.86570272877E+01 -.43600447686E+01 -.95072969606E+01 -.35322579408E+01
 0.37947684004E+01 0.34623069467E+01 -.18585663817E+01 -.34545600345E+01 0.57033727707E+00
 0.34517452665E+01 0.57033727707E+00 -.34545600345E+01 -.18585663817E+01 0.34623069467E+01
 0.37947684004E+01 -.35322579408E+01 -.95072969606E+01 -.43600447686E+01 0.86570272877E+01
 -.23326766557E+02 -.14149381995E+02 0.32743233688E+01 0.10998861359E+02 0.44195218709E+01
 -.44652775726E+01 -.42064309858E+01 0.22325976616E+01 0.42087077191E+01 -.68710683032E+00
 -.42060921429E+01 -.68710683032E+00 0.42087077191E+01 0.22325976616E+01 -.42064309858E+01
 -.44652775726E+01 0.44195218709E+01 0.10998861359E+02 0.32743233688E+01 -.14149381995E+02
 -.25627622503E+02 -.12820096429E+02 0.10807598409E+02 0.19331925180E+02 0.70611406374E+01
 -.72479015197E+01 -.66147628688E+01 0.35957288882E+01 0.66327195435E+01 -.10995582610E+01
 -.66255732222E+01 -.10995582610E+01 0.66327195435E+01 0.35957288882E+01 -.66147628688E+01
 -.72479015197E+01 0.70611406374E+01 0.19331925180E+02 0.10807598409E+02 -.12820096429E+02
 0.38643706837E+02 0.26372470163E+02 0.23768299549E+01 -.10252027972E+02 -.46429414887E+01
 0.51812843305E+01 0.49593820158E+01 -.25186054329E+01 -.48959144122E+01 0.78287394730E+00
 0.48935710941E+01 0.78287394730E+00 -.48959144122E+01 -.25186054329E+01 0.49593820158E+01
 0.51812843305E+01 -.46429414887E+01 -.10252027972E+02 0.23768299549E+01 0.26372470163E+02
 0.10328735219E+03 0.59125000522E+02 -.23718645770E+02 -.57638609552E+02 -.21625208907E+02
 0.23601137957E+02 0.21565734769E+02 -.11490012534E+02 -.21456698215E+02 0.35260215502E+01
 0.21429359945E+02 0.35260215502E+01 -.21456698215E+02 -.11490012534E+02 0.21565734769E+02
 0.23601137957E+02 -.21625208907E+02 -.57638609552E+02 -.23718645770E+02 0.59125000522E+02
 -.50187693687E+02 -.49752076726E+02 -.44010272355E+02 -.27538362179E+02 -.58234764398E+01
 0.73099761396E+01 0.52590891380E+01 -.32876581979E+01 -.52382155226E+01 0.95704335139E+00
 0.51912888214E+01 0.95704335139E+00 -.52382155226E+01 -.32876581979E+01 0.52590891380E+01
 0.73099761396E+01 -.58234764398E+01 -.27538362179E+02 -.44010272355E+02 -.49752076726E+02
 -.86737937495E+02 -.72997602012E+02 -.41732593314E+02 -.13196035590E+02 0.17368107650E+00
 0.11796738616E+01 -.57224276489E+00 -.23237100663E+00 0.57932401283E+00 0.14407430656E-01