   3   3   0   0
  0.3333333E+03  0.1000000E-08  0.1000000E-08  0.1000000E-08  0.5000000E-15
  1.000000000000000E-004
  CAR 
 bader_test                              
      1.82597315    -47.28848805  301     -5.36451076      1.00000000
    -47.288  0.0000E+00  0.0000E+00
    -47.125  0.0000E+00  0.0000E+00
    -46.961  0.0000E+00  0.0000E+00
    -46.797  0.0000E+00  0.0000E+00
    -46.634  0.0000E+00  0.0000E+00
    -46.470  0.0000E+00  0.0000E+00
    -46.306  0.0000E+00  0.0000E+00
    -46.142  0.0000E+00  0.0000E+00
    -45.979  0.1501E-03  0.2457E-04
    -45.815  0.1533E-02  0.2756E-03
    -45.651  0.8037E-02  0.1591E-02
    -45.488  0.3994E-01  0.8130E-02
    -45.324  0.1979E+00  0.4053E-01
    -45.160  0.8635E+00  0.1819E+00
    -44.996  0.2581E+01  0.6045E+00
    -44.833  0.4043E+01  0.1266E+01
    -44.669  0.3005E+01  0.1758E+01
    -44.505  0.1132E+01  0.1944E+01
    -44.342  0.2743E+00  0.1989E+01
    -44.178  0.5520E-01  0.1998E+01
    -44.014  0.4534E-02  0.2000E+01
    -43.850  0.0000E+00  0.2000E+01
    -43.687  0.0000E+00  0.2000E+01
    -43.523  0.0000E+00  0.2000E+01
    -43.359  0.0000E+00  0.2000E+01
    -43.196  0.0000E+00  0.2000E+01
    -43.032  0.0000E+00  0.2000E+01
    -42.868  0.0000E+00  0.2000E+01
    -42.704  0.0000E+00  0.2000E+01
    -42.541  0.0000E+00  0.2000E+01
    -42.377  0.0000E+00  0.2000E+01
    -42.213  0.0000E+00  0.2000E+01
    -42.050  0.0000E+00  0.2000E+01
    -41.886  0.0000E+00  0.2000E+01
    -41.722  0.0000E+00  0.2000E+01
    -41.558  0.0000E+00  0.2000E+01
    -41.395  0.0000E+00  0.2000E+01
    -41.231  0.0000E+00  0.2000E+01
    -41.067  0.0000E+00  0.2000E+01
    -40.904  0.0000E+00  0.2000E+01
    -40.740  0.0000E+00  0.2000E+01
    -40.576  0.0000E+00  0.2000E+01
    -40.412  0.0000E+00  0.2000E+01
    -40.249  0.0000E+00  0.2000E+01
    -40.085  0.0000E+00  0.2000E+01
    -39.921  0.0000E+00  0.2000E+01
    -39.758  0.0000E+00  0.2000E+01
    -39.594  0.0000E+00  0.2000E+01
    -39.430  0.0000E+00  0.2000E+01
    -39.266  0.0000E+00  0.2000E+01
    -39.103  0.0000E+00  0.2000E+01
    -38.939  0.0000E+00  0.2000E+01
    -38.775  0.0000E+00  0.2000E+01
    -38.612  0.0000E+00  0.2000E+01
    -38.448  0.0000E+00  0.2000E+01
    -38.284  0.0000E+00  0.2000E+01
    -38.120  0.0000E+00  0.2000E+01
    -37.957  0.0000E+00  0.2000E+01
    -37.793  0.0000E+00  0.2000E+01
    -37.629  0.0000E+00  0.2000E+01
    -37.466  0.0000E+00  0.2000E+01
    -37.302  0.0000E+00  0.2000E+01
    -37.138  0.0000E+00  0.2000E+01
    -36.974  0.0000E+00  0.2000E+01
    -36.811  0.0000E+00  0.2000E+01
    -36.647  0.0000E+00  0.2000E+01
    -36.483  0.0000E+00  0.2000E+01
    -36.320  0.0000E+00  0.2000E+01
    -36.156  0.0000E+00  0.2000E+01
    -35.992  0.0000E+00  0.2000E+01
    -35.828  0.0000E+00  0.2000E+01
    -35.665  0.0000E+00  0.2000E+01
    -35.501  0.0000E+00  0.2000E+01
    -35.337  0.0000E+00  0.2000E+01
    -35.174  0.0000E+00  0.2000E+01
    -35.010  0.0000E+00  0.2000E+01
    -34.846  0.0000E+00  0.2000E+01
    -34.682  0.0000E+00  0.2000E+01
    -34.519  0.0000E+00  0.2000E+01
    -34.355  0.0000E+00  0.2000E+01
    -34.191  0.0000E+00  0.2000E+01
    -34.028  0.0000E+00  0.2000E+01
    -33.864  0.0000E+00  0.2000E+01
    -33.700  0.0000E+00  0.2000E+01
    -33.536  0.0000E+00  0.2000E+01
    -33.373  0.0000E+00  0.2000E+01
    -33.209  0.0000E+00  0.2000E+01
    -33.045  0.0000E+00  0.2000E+01
    -32.882  0.0000E+00  0.2000E+01
    -32.718  0.0000E+00  0.2000E+01
    -32.554  0.0000E+00  0.2000E+01
    -32.390  0.0000E+00  0.2000E+01
    -32.227  0.0000E+00  0.2000E+01
    -32.063  0.0000E+00  0.2000E+01
    -31.899  0.0000E+00  0.2000E+01
    -31.736  0.0000E+00  0.2000E+01
    -31.572  0.0000E+00  0.2000E+01
    -31.408  0.0000E+00  0.2000E+01
    -31.244  0.0000E+00  0.2000E+01
    -31.081  0.0000E+00  0.2000E+01
    -30.917  0.0000E+00  0.2000E+01
    -30.753  0.0000E+00  0.2000E+01
    -30.590  0.0000E+00  0.2000E+01
    -30.426  0.0000E+00  0.2000E+01
    -30.262  0.0000E+00  0.2000E+01
    -30.098  0.0000E+00  0.2000E+01
    -29.935  0.0000E+00  0.2000E+01
    -29.771  0.0000E+00  0.2000E+01
    -29.607  0.0000E+00  0.2000E+01
    -29.444  0.0000E+00  0.2000E+01
    -29.280  0.0000E+00  0.2000E+01
    -29.116  0.0000E+00  0.2000E+01
    -28.952  0.0000E+00  0.2000E+01
    -28.789  0.0000E+00  0.2000E+01
    -28.625  0.0000E+00  0.2000E+01
    -28.461  0.0000E+00  0.2000E+01
    -28.298  0.0000E+00  0.2000E+01
    -28.134  0.0000E+00  0.2000E+01
    -27.970  0.0000E+00  0.2000E+01
    -27.806  0.0000E+00  0.2000E+01
    -27.643  0.0000E+00  0.2000E+01
    -27.479  0.0000E+00  0.2000E+01
    -27.315  0.0000E+00  0.2000E+01
    -27.152  0.0000E+00  0.2000E+01
    -26.988  0.0000E+00  0.2000E+01
    -26.824  0.0000E+00  0.2000E+01
    -26.660  0.0000E+00  0.2000E+01
    -26.497  0.0000E+00  0.2000E+01
    -26.333  0.0000E+00  0.2000E+01
    -26.169  0.0000E+00  0.2000E+01
    -26.006  0.0000E+00  0.2000E+01
    -25.842  0.0000E+00  0.2000E+01
    -25.678  0.0000E+00  0.2000E+01
    -25.514  0.0000E+00  0.2000E+01
    -25.351  0.0000E+00  0.2000E+01
    -25.187  0.0000E+00  0.2000E+01
    -25.023  0.0000E+00  0.2000E+01
    -24.860  0.0000E+00  0.2000E+01
    -24.696  0.0000E+00  0.2000E+01
    -24.532  0.0000E+00  0.2000E+01
    -24.368  0.0000E+00  0.2000E+01
    -24.205  0.0000E+00  0.2000E+01
    -24.041  0.0000E+00  0.2000E+01
    -23.877  0.0000E+00  0.2000E+01
    -23.714  0.0000E+00  0.2000E+01
    -23.550  0.0000E+00  0.2000E+01
    -23.386  0.0000E+00  0.2000E+01
    -23.222  0.0000E+00  0.2000E+01
    -23.059  0.0000E+00  0.2000E+01
    -22.895  0.0000E+00  0.2000E+01
    -22.731  0.0000E+00  0.2000E+01
    -22.568  0.0000E+00  0.2000E+01
    -22.404  0.0000E+00  0.2000E+01
    -22.240  0.0000E+00  0.2000E+01
    -22.076  0.0000E+00  0.2000E+01
    -21.913  0.0000E+00  0.2000E+01
    -21.749  0.0000E+00  0.2000E+01
    -21.585  0.0000E+00  0.2000E+01
    -21.422  0.0000E+00  0.2000E+01
    -21.258  0.0000E+00  0.2000E+01
    -21.094  0.0000E+00  0.2000E+01
    -20.930  0.0000E+00  0.2000E+01
    -20.767  0.0000E+00  0.2000E+01
    -20.603  0.0000E+00  0.2000E+01
    -20.439  0.0000E+00  0.2000E+01
    -20.276  0.0000E+00  0.2000E+01
    -20.112  0.0000E+00  0.2000E+01
    -19.948  0.0000E+00  0.2000E+01
    -19.784  0.0000E+00  0.2000E+01
    -19.621  0.0000E+00  0.2000E+01
    -19.457  0.0000E+00  0.2000E+01
    -19.293  0.0000E+00  0.2000E+01
    -19.130  0.0000E+00  0.2000E+01
    -18.966  0.0000E+00  0.2000E+01
    -18.802  0.0000E+00  0.2000E+01
    -18.638  0.0000E+00  0.2000E+01
    -18.475  0.0000E+00  0.2000E+01
    -18.311  0.0000E+00  0.2000E+01
    -18.147  0.0000E+00  0.2000E+01
    -17.984  0.0000E+00  0.2000E+01
    -17.820  0.0000E+00  0.2000E+01
    -17.656  0.0000E+00  0.2000E+01
    -17.492  0.0000E+00  0.2000E+01
    -17.329  0.0000E+00  0.2000E+01
    -17.165  0.0000E+00  0.2000E+01
    -17.001  0.0000E+00  0.2000E+01
    -16.838  0.0000E+00  0.2000E+01
    -16.674  0.0000E+00  0.2000E+01
    -16.510  0.0000E+00  0.2000E+01
    -16.346  0.0000E+00  0.2000E+01
    -16.183  0.0000E+00  0.2000E+01
    -16.019  0.0000E+00  0.2000E+01
    -15.855  0.0000E+00  0.2000E+01
    -15.692  0.0000E+00  0.2000E+01
    -15.528  0.0000E+00  0.2000E+01
    -15.364  0.0000E+00  0.2000E+01
    -15.200  0.0000E+00  0.2000E+01
    -15.037  0.0000E+00  0.2000E+01
    -14.873  0.0000E+00  0.2000E+01
    -14.709  0.0000E+00  0.2000E+01
    -14.546  0.0000E+00  0.2000E+01
    -14.382  0.0000E+00  0.2000E+01
    -14.218  0.0000E+00  0.2000E+01
    -14.054  0.0000E+00  0.2000E+01
    -13.891  0.0000E+00  0.2000E+01
    -13.727  0.0000E+00  0.2000E+01
    -13.563  0.0000E+00  0.2000E+01
    -13.400  0.0000E+00  0.2000E+01
    -13.236  0.0000E+00  0.2000E+01
    -13.072  0.1339E-03  0.2000E+01
    -12.908  0.1041E-02  0.2000E+01
    -12.745  0.6098E-02  0.2001E+01
    -12.581  0.3019E-01  0.2006E+01
    -12.417  0.1495E+00  0.2031E+01
    -12.254  0.6544E+00  0.2138E+01
    -12.090  0.1983E+01  0.2462E+01
    -11.926  0.3422E+01  0.3023E+01
    -11.762  0.3374E+01  0.3575E+01
    -11.599  0.1940E+01  0.3893E+01
    -11.435  0.9545E+00  0.4049E+01
    -11.271  0.1500E+01  0.4295E+01
    -11.108  0.3130E+01  0.4808E+01
    -10.944  0.3776E+01  0.5427E+01
    -10.780  0.2405E+01  0.5821E+01
    -10.616  0.8461E+00  0.5959E+01
    -10.453  0.1997E+00  0.5992E+01
    -10.289  0.3553E-01  0.5999E+01
    -10.125  0.3747E-02  0.6000E+01
     -9.961  0.0000E+00  0.6000E+01
     -9.798  0.0000E+00  0.6000E+01
     -9.634  0.0000E+00  0.6000E+01
     -9.470  0.0000E+00  0.6000E+01
     -9.307  0.0000E+00  0.6000E+01
     -9.143  0.0000E+00  0.6000E+01
     -8.979  0.0000E+00  0.6000E+01
     -8.815  0.0000E+00  0.6000E+01
     -8.652  0.0000E+00  0.6000E+01
     -8.488  0.0000E+00  0.6000E+01
     -8.324  0.0000E+00  0.6000E+01
     -8.161  0.0000E+00  0.6000E+01
     -7.997  0.0000E+00  0.6000E+01
     -7.833  0.0000E+00  0.6000E+01
     -7.669  0.0000E+00  0.6000E+01
     -7.506  0.0000E+00  0.6000E+01
     -7.342  0.1861E-03  0.6000E+01
     -7.178  0.2508E-02  0.6000E+01
     -7.015  0.1151E-01  0.6002E+01
     -6.851  0.5827E-01  0.6012E+01
     -6.687  0.2865E+00  0.6059E+01
     -6.523  0.1209E+01  0.6257E+01
     -6.360  0.3274E+01  0.6793E+01
     -6.196  0.4182E+01  0.7477E+01
     -6.032  0.2326E+01  0.7858E+01
     -5.869  0.6821E+00  0.7970E+01
     -5.705  0.1479E+00  0.7994E+01
     -5.541  0.2313E-01  0.7999E+01
     -5.377  0.8671E-03  0.8000E+01
     -5.214  0.4591E-02  0.8001E+01
     -5.050  0.2275E-01  0.8005E+01
     -4.886  0.1137E+00  0.8023E+01
     -4.723  0.5184E+00  0.8108E+01
     -4.559  0.1732E+01  0.8392E+01
     -4.395  0.3332E+01  0.8937E+01
     -4.231  0.3544E+01  0.9517E+01
     -4.068  0.2076E+01  0.9857E+01
     -3.904  0.6795E+00  0.9968E+01
     -3.740  0.1530E+00  0.9994E+01
     -3.577  0.2719E-01  0.9999E+01
     -3.413  0.2784E-02  0.1000E+02
     -3.249  0.0000E+00  0.1000E+02
     -3.085  0.0000E+00  0.1000E+02
     -2.922  0.0000E+00  0.1000E+02
     -2.758  0.0000E+00  0.1000E+02
     -2.594  0.0000E+00  0.1000E+02
     -2.431  0.0000E+00  0.1000E+02
     -2.267  0.0000E+00  0.1000E+02
     -2.103  0.1329E-03  0.1000E+02
     -1.939  0.1054E-02  0.1000E+02
     -1.776  0.6047E-02  0.1000E+02
     -1.612  0.3113E-01  0.1001E+02
     -1.448  0.1550E+00  0.1003E+02
     -1.285  0.6923E+00  0.1014E+02
     -1.121  0.2286E+01  0.1052E+02
     -0.957  0.5002E+01  0.1134E+02
     -0.793  0.7695E+01  0.1260E+02
     -0.630  0.8514E+01  0.1399E+02
     -0.466  0.6741E+01  0.1510E+02
     -0.302  0.3832E+01  0.1572E+02
     -0.139  0.1309E+01  0.1594E+02
      0.025  0.2974E+00  0.1599E+02
      0.189  0.5210E-01  0.1600E+02
      0.353  0.5558E-02  0.1600E+02
      0.516  0.0000E+00  0.1600E+02
      0.680  0.0000E+00  0.1600E+02
      0.844  0.0000E+00  0.1600E+02
      1.007  0.0000E+00  0.1600E+02
      1.171  0.0000E+00  0.1600E+02
      1.335  0.0000E+00  0.1600E+02
      1.499  0.0000E+00  0.1600E+02
      1.662  0.0000E+00  0.1600E+02
      1.826  0.0000E+00  0.1600E+02
