<?xml version="1.0" encoding="ISO-8859-1"?>
<modeling>
 <generator>
  <i name="program" type="string">vasp </i>
  <i name="version" type="string">5.4.4.18Apr17-6-g9f103f2a35  </i>
  <i name="subversion" type="string">(build Feb 19 2020 16:12:31) complex            parallel </i>
  <i name="platform" type="string">LinuxIFC </i>
  <i name="date" type="string">2021 04 29 </i>
  <i name="time" type="string">00:43:31 </i>
 </generator>
 <incar>
  <i type="string" name="SYSTEM">bader_test</i>
  <i type="string" name="PREC">accurate</i>
  <i type="string" name="ALGO">Fast</i>
  <i type="int" name="NELM">   100</i>
  <i type="int" name="IBRION">    -1</i>
  <i type="int" name="NSW">     0</i>
  <i type="int" name="NGX">    10</i>
  <i type="int" name="NGY">    10</i>
  <i type="int" name="NGZ">    10</i>
  <i type="logical" name="LREAL"> F  </i>
  <i type="int" name="ISMEAR">    -1</i>
  <i name="SIGMA">      0.10000000</i>
  <i type="logical" name="LWAVE"> F  </i>
  <i type="logical" name="LCHARG"> T  </i>
  <i type="int" name="LORBIT">     0</i>
  <i type="logical" name="LAECHG"> T  </i>
  <v type="int" name="KPOINT_BSE">    -1     0     0     0</v>
  <i type="int" name="NELM">   100</i>
 </incar>
 <structure name="primitive_cell" >
  <crystal>
   <varray name="basis" >
    <v>      10.00000000       0.00000000       0.00000000 </v>
    <v>       0.00000000      10.00000000       0.00000000 </v>
    <v>       0.00000000       0.00000000      10.00000000 </v>
   </varray>
   <i name="volume">   1000.00000000 </i>
   <varray name="rec_basis" >
    <v>       0.10000000       0.00000000       0.00000000 </v>
    <v>       0.00000000       0.10000000       0.00000000 </v>
    <v>       0.00000000       0.00000000       0.10000000 </v>
   </varray>
  </crystal>
  <varray name="positions" >
   <v>       0.07000000       0.07000000       0.00000000 </v>
   <v>       0.00000000       0.00000000       0.00000000 </v>
   <v>      -0.07000000       0.07000000       0.00000000 </v>
  </varray>
 </structure>
 <varray name="primitive_index" >
  <v type="int" >        1 </v>
  <v type="int" >        3 </v>
  <v type="int" >        2 </v>
 </varray>
 <kpoints>
  <generation param="Monkhorst-Pack">
   <v type="int" name="divisions">       4        4        4 </v>
   <v name="usershift">      0.00000000       0.00000000       0.00000000 </v>
   <v name="genvec1">      0.25000000       0.00000000       0.00000000 </v>
   <v name="genvec2">      0.00000000       0.25000000       0.00000000 </v>
   <v name="genvec3">      0.00000000       0.00000000       0.25000000 </v>
   <v name="shift">      0.50000000       0.50000000       0.50000000 </v>
  </generation>
  <varray name="kpointlist" >
   <v>       0.12500000       0.12500000       0.12500000 </v>
   <v>       0.37500000       0.12500000       0.12500000 </v>
   <v>       0.12500000       0.37500000       0.12500000 </v>
   <v>       0.37500000       0.37500000       0.12500000 </v>
   <v>       0.12500000       0.12500000       0.37500000 </v>
   <v>       0.37500000       0.12500000       0.37500000 </v>
   <v>       0.12500000       0.37500000       0.37500000 </v>
   <v>       0.37500000       0.37500000       0.37500000 </v>
  </varray>
  <varray name="weights" >
   <v>       0.12500000 </v>
   <v>       0.12500000 </v>
   <v>       0.12500000 </v>
   <v>       0.12500000 </v>
   <v>       0.12500000 </v>
   <v>       0.12500000 </v>
   <v>       0.12500000 </v>
   <v>       0.12500000 </v>
  </varray>
 </kpoints>
 <parameters>
  <separator name="general" >
   <i type="string" name="SYSTEM">bader_test</i>
   <i type="logical" name="LCOMPAT"> F  </i>
  </separator>
  <separator name="electronic" >
   <i type="string" name="PREC">accura</i>
   <i name="ENMAX">    400.00000000</i>
   <i name="ENAUG">    605.39200000</i>
   <i name="EDIFF">      0.00010000</i>
   <i type="int" name="IALGO">    68</i>
   <i type="int" name="IWAVPR">    10</i>
   <i type="int" name="NBANDS">     8</i>
   <i name="NELECT">      8.00000000</i>
   <i type="int" name="TURBO">     0</i>
   <i type="int" name="IRESTART">     0</i>
   <i type="int" name="NREBOOT">     0</i>
   <i type="int" name="NMIN">     0</i>
   <i name="EREF">      0.00000000</i>
   <separator name="electronic smearing" >
    <i type="int" name="ISMEAR">    -1</i>
    <i name="SIGMA">      0.10000000</i>
    <i name="KSPACING">      0.50000000</i>
    <i type="logical" name="KGAMMA"> T  </i>
   </separator>
   <separator name="electronic projectors" >
    <i type="logical" name="LREAL"> F  </i>
    <v name="ROPT">      0.00000000      0.00000000</v>
    <i type="int" name="LMAXPAW">  -100</i>
    <i type="int" name="LMAXMIX">     2</i>
    <i type="logical" name="NLSPLINE"> F  </i>
   </separator>
   <separator name="electronic startup" >
    <i type="int" name="ISTART">     0</i>
    <i type="int" name="ICHARG">     2</i>
    <i type="int" name="INIWAV">     1</i>
   </separator>
   <separator name="electronic spin" >
    <i type="int" name="ISPIN">     1</i>
    <i type="logical" name="LNONCOLLINEAR"> F  </i>
    <v name="MAGMOM">      1.00000000      1.00000000      1.00000000</v>
    <i name="NUPDOWN">     -1.00000000</i>
    <i type="logical" name="LSORBIT"> F  </i>
    <v name="SAXIS">      0.00000000      0.00000000      1.00000000</v>
    <i type="logical" name="LSPIRAL"> F  </i>
    <v name="QSPIRAL">      0.00000000      0.00000000      0.00000000</v>
    <i type="logical" name="LZEROZ"> F  </i>
   </separator>
   <separator name="electronic exchange-correlation" >
    <i type="logical" name="LASPH"> F  </i>
    <i type="logical" name="LMETAGGA"> F  </i>
   </separator>
   <separator name="electronic convergence" >
    <i type="int" name="NELM">   100</i>
    <i type="int" name="NELMDL">    -5</i>
    <i type="int" name="NELMIN">     2</i>
    <i name="ENINI">    400.00000000</i>
    <separator name="electronic convergence detail" >
     <i type="logical" name="LDIAG"> T  </i>
     <i type="logical" name="LSUBROT"> F  </i>
     <i name="WEIMIN">      0.00000000</i>
     <i name="EBREAK">      0.00000313</i>
     <i name="DEPER">      0.30000000</i>
     <i type="int" name="NRMM">     4</i>
     <i name="TIME">      0.40000000</i>
    </separator>
   </separator>
   <separator name="electronic mixer" >
    <i name="AMIX">      0.40000000</i>
    <i name="BMIX">      1.00000000</i>
    <i name="AMIN">      0.10000000</i>
    <i name="AMIX_MAG">      1.60000000</i>
    <i name="BMIX_MAG">      1.00000000</i>
    <separator name="electronic mixer details" >
     <i type="int" name="IMIX">     4</i>
     <i type="logical" name="MIXFIRST"> F  </i>
     <i type="int" name="MAXMIX">   -45</i>
     <i name="WC">    100.00000000</i>
     <i type="int" name="INIMIX">     1</i>
     <i type="int" name="MIXPRE">     1</i>
     <i type="int" name="MREMOVE">     5</i>
    </separator>
   </separator>
   <separator name="electronic dipolcorrection" >
    <i type="logical" name="LDIPOL"> F  </i>
    <i type="logical" name="LMONO"> F  </i>
    <i type="int" name="IDIPOL">     0</i>
    <i name="EPSILON">      1.00000000</i>
    <v name="DIPOL">   -100.00000000   -100.00000000   -100.00000000</v>
    <i name="EFIELD">      0.00000000</i>
   </separator>
  </separator>
  <separator name="grids" >
   <i type="int" name="NGX">    10</i>
   <i type="int" name="NGY">    10</i>
   <i type="int" name="NGZ">    10</i>
   <i type="int" name="NGXF">    20</i>
   <i type="int" name="NGYF">    20</i>
   <i type="int" name="NGZF">    20</i>
   <i type="logical" name="ADDGRID"> F  </i>
  </separator>
  <separator name="ionic" >
   <i type="int" name="NSW">     0</i>
   <i type="int" name="IBRION">    -1</i>
   <i type="int" name="MDALGO">     0</i>
   <i type="int" name="ISIF">     2</i>
   <i name="PSTRESS">      0.00000000</i>
   <i name="EDIFFG">      0.00100000</i>
   <i type="int" name="NFREE">     0</i>
   <i name="POTIM">      0.50000000</i>
   <i name="SMASS">     -3.00000000</i>
   <i name="SCALEE">      1.00000000</i>
  </separator>
  <separator name="ionic md" >
   <i name="TEBEG">      0.00010000</i>
   <i name="TEEND">      0.00010000</i>
   <i type="int" name="NBLOCK">     1</i>
   <i type="int" name="KBLOCK">     1</i>
   <i type="int" name="NPACO">   256</i>
   <i name="APACO">     16.00000000</i>
  </separator>
  <separator name="symmetry" >
   <i type="int" name="ISYM">     2</i>
   <i name="SYMPREC">      0.00001000</i>
  </separator>
  <separator name="dos" >
   <i type="int" name="LORBIT">     0</i>
   <v name="RWIGS">     -1.00000000     -1.00000000</v>
   <i type="int" name="NEDOS">   301</i>
   <i name="EMIN">     10.00000000</i>
   <i name="EMAX">    -10.00000000</i>
   <i name="EFERMI">      0.00000000</i>
  </separator>
  <separator name="writing" >
   <i type="int" name="NWRITE">     2</i>
   <i type="logical" name="LWAVE"> F  </i>
   <i type="logical" name="LDOWNSAMPLE"> F  </i>
   <i type="logical" name="LCHARG"> T  </i>
   <i type="logical" name="LPARD"> F  </i>
   <i type="logical" name="LVTOT"> F  </i>
   <i type="logical" name="LVHAR"> F  </i>
   <i type="logical" name="LELF"> F  </i>
   <i type="logical" name="LOPTICS"> F  </i>
   <v name="STM">      0.00000000      0.00000000      0.00000000      0.00000000      0.00000000      0.00000000      0.00000000</v>
  </separator>
  <separator name="performance" >
   <i type="int" name="NPAR">     1</i>
   <i type="int" name="NSIM">     4</i>
   <i type="int" name="NBLK">    -1</i>
   <i type="logical" name="LPLANE"> T  </i>
   <i type="logical" name="LSCALAPACK"> T  </i>
   <i type="logical" name="LSCAAWARE"> F  </i>
   <i type="logical" name="LSCALU"> F  </i>
   <i type="logical" name="LASYNC"> F  </i>
   <i type="logical" name="LORBITALREAL"> F  </i>
  </separator>
  <separator name="miscellaneous" >
   <i type="int" name="IDIOT">     3</i>
   <i type="int" name="ISPECIAL">     0</i>
   <i type="logical" name="LMUSIC"> F  </i>
   <v name="POMASS">      1.00000000     16.00000000</v>
   <v name="DARWINR">      0.00000000      0.00000000</v>
   <v name="DARWINV">      1.00000000      1.00000000</v>
   <i type="logical" name="LCORR"> T  </i>
  </separator>
  <i type="logical" name="GGA_COMPAT"> T  </i>
  <i type="logical" name="LBERRY"> F  </i>
  <i type="int" name="ICORELEVEL">     0</i>
  <i type="logical" name="LDAU"> F  </i>
  <i type="int" name="I_CONSTRAINED_M">     0</i>
  <separator name="electronic exchange-correlation" >
   <i type="string" name="GGA">--</i>
   <i type="int" name="VOSKOWN">     0</i>
   <i type="logical" name="LHFCALC"> F  </i>
   <i type="string" name="PRECFOCK"></i>
   <i type="logical" name="LSYMGRAD"> F  </i>
   <i type="logical" name="LHFONE"> F  </i>
   <i type="logical" name="LRHFCALC"> F  </i>
   <i type="logical" name="LTHOMAS"> F  </i>
   <i type="logical" name="LMODELHF"> F  </i>
   <i name="ENCUT4O">     -1.00000000</i>
   <i type="int" name="EXXOEP">     0</i>
   <i type="int" name="FOURORBIT">     0</i>
   <i name="AEXX">      0.00000000</i>
   <i name="HFALPHA">      0.00000000</i>
   <i name="MCALPHA">      0.00000000</i>
   <i name="ALDAX">      1.00000000</i>
   <i name="AGGAX">      1.00000000</i>
   <i name="ALDAC">      1.00000000</i>
   <i name="AGGAC">      1.00000000</i>
   <i type="int" name="NKREDX">     1</i>
   <i type="int" name="NKREDY">     1</i>
   <i type="int" name="NKREDZ">     1</i>
   <i type="logical" name="SHIFTRED"> F  </i>
   <i type="logical" name="ODDONLY"> F  </i>
   <i type="logical" name="EVENONLY"> F  </i>
   <i type="int" name="LMAXFOCK">     0</i>
   <i type="int" name="NMAXFOCKAE">     0</i>
   <i type="logical" name="LFOCKAEDFT"> F  </i>
   <i name="HFSCREEN">      0.00000000</i>
   <i name="HFSCREENC">      0.00000000</i>
   <i type="int" name="NBANDSGWLOW">     0</i>
  </separator>
  <separator name="vdW DFT" >
   <i type="logical" name="LUSE_VDW"> F  </i>
   <i name="Zab_VDW">     -0.84910000</i>
   <i name="PARAM1">      0.12340000</i>
   <i name="PARAM2">      1.00000000</i>
   <i name="PARAM3">      0.00000000</i>
  </separator>
  <separator name="model GW" >
   <i type="int" name="MODEL_GW">     0</i>
   <i name="MODEL_EPS0">    200.00000000</i>
   <i name="MODEL_ALPHA">      1.00000000</i>
  </separator>
  <separator name="linear response parameters" >
   <i type="logical" name="LEPSILON"> F  </i>
   <i type="logical" name="LRPA"> F  </i>
   <i type="logical" name="LNABLA"> F  </i>
   <i type="logical" name="LVEL"> F  </i>
   <i type="int" name="KINTER">     0</i>
   <i name="CSHIFT">      0.10000000</i>
   <i name="OMEGAMAX">     -1.00000000</i>
   <i name="DEG_THRESHOLD">      0.00200000</i>
   <i name="RTIME">     -0.10000000</i>
   <i name="WPLASMAI">      0.00000000</i>
   <v name="DFIELD">      0.00000000      0.00000000      0.00000000</v>
   <v name="WPLASMA">      0.00000000      0.00000000      0.00000000      0.00000000      0.00000000      0.00000000      0.00000000      0.00000000      0.00000000</v>
  </separator>
  <separator name="orbital magnetization" >
   <i type="logical" name="NUCIND"> F  </i>
   <v name="MAGPOS">      0.00000000      0.00000000      0.00000000</v>
   <i type="logical" name="LNICSALL"> T  </i>
   <i type="logical" name="ORBITALMAG"> F  </i>
   <i type="logical" name="LMAGBLOCH"> F  </i>
   <i type="logical" name="LCHIMAG"> F  </i>
   <i type="logical" name="LGAUGE"> T  </i>
   <i type="int" name="MAGATOM">     0</i>
   <v name="MAGDIPOL">      0.00000000      0.00000000      0.00000000</v>
   <v name="AVECCONST">      0.00000000      0.00000000      0.00000000</v>
  </separator>
  <separator name="response functions" >
   <i type="logical" name="LADDER"> F  </i>
   <i type="logical" name="LRPAFORCE"> F  </i>
   <i type="logical" name="LFXC"> F  </i>
   <i type="logical" name="LHARTREE"> T  </i>
   <i type="int" name="IBSE">     0</i>
   <v type="int" name="KPOINT">    -1     0     0     0</v>
   <i type="logical" name="LTCTE"> F  </i>
   <i type="logical" name="LTETE"> F  </i>
   <i type="logical" name="LTRIPLET"> F  </i>
   <i type="logical" name="LFXCEPS"> F  </i>
   <i type="logical" name="LFXHEG"> F  </i>
   <i type="int" name="NATURALO">     2</i>
   <i type="logical" name="L2ORDER"> F  </i>
   <i type="logical" name="LMP2LT"> F  </i>
   <i type="logical" name="LUSEW"> F  </i>
   <i name="ENCUTGW">     -2.00000000</i>
   <i name="ENCUTGWSOFT">     -2.00000000</i>
   <i name="ENCUTLF">     -1.00000000</i>
   <i type="int" name="LMAXMP2">    -1</i>
   <i name="SCISSOR">      0.00000000</i>
   <i type="int" name="NOMEGA">     0</i>
   <i type="int" name="NOMEGAR">     0</i>
   <i type="int" name="NBANDSGW">    -1</i>
   <i type="int" name="NBANDSO">    -1</i>
   <i type="int" name="NBANDSV">    -1</i>
   <i type="int" name="NELM">   100</i>
   <i type="int" name="NELMHF">     1</i>
   <i type="int" name="DIM">     3</i>
   <i type="int" name="ANTIRES">     0</i>
   <i name="OMEGAMAX">    -30.00000000</i>
   <i name="OMEGAMIN">    -30.00000000</i>
   <i name="OMEGATL">   -200.00000000</i>
   <i type="int" name="OMEGAGRID">   140</i>
   <i name="CSHIFT">     -0.10000000</i>
   <i type="logical" name="SELFENERGY"> F  </i>
   <i type="logical" name="LSPECTRAL"> F  </i>
   <i type="logical" name="LSPECTRALGW"> F  </i>
   <i type="logical" name="LSINGLES"> F  </i>
   <i type="logical" name="LFERMIGW"> F  </i>
   <i type="logical" name="ODDONLYGW"> F  </i>
   <i type="logical" name="EVENONLYGW"> F  </i>
   <i type="int" name="NKREDLFX">     1</i>
   <i type="int" name="NKREDLFY">     1</i>
   <i type="int" name="NKREDLFZ">     1</i>
   <i type="int" name="MAXMEM">  2800</i>
   <i type="int" name="TELESCOPE">     0</i>
   <i type="int" name="TAUPAR">     1</i>
   <i type="int" name="OMEGAPAR">    -1</i>
   <i name="LAMBDA">      1.00000000</i>
  </separator>
  <separator name="External order field" >
   <i name="OFIELD_KAPPA">      0.00000000</i>
   <v name="OFIELD_K">      0.00000000      0.00000000      0.00000000</v>
   <i name="OFIELD_Q6_NEAR">      0.00000000</i>
   <i name="OFIELD_Q6_FAR">      0.00000000</i>
   <i name="OFIELD_A">      0.00000000</i>
  </separator>
 </parameters>
 <atominfo>
  <atoms>       3 </atoms>
  <types>       2 </types>
  <array name="atoms" >
   <dimension dim="1">ion</dimension>
   <field type="string">element</field>
   <field type="int">atomtype</field>
   <set>
    <rc><c>H </c><c>   1</c></rc>
    <rc><c>H </c><c>   1</c></rc>
    <rc><c>O </c><c>   2</c></rc>
   </set>
  </array>
  <array name="atomtypes" >
   <dimension dim="1">type</dimension>
   <field type="int">atomspertype</field>
   <field type="string">element</field>
   <field>mass</field>
   <field>valence</field>
   <field type="string">pseudopotential</field>
   <set>
    <rc><c>   2</c><c>H </c><c>      1.00000000</c><c>      1.00000000</c><c>  PAW_PBE H 15Jun2001                   </c></rc>
    <rc><c>   1</c><c>O </c><c>     16.00000000</c><c>      6.00000000</c><c>  PAW_PBE O 08Apr2002                   </c></rc>
   </set>
  </array>
 </atominfo>
 <structure name="initialpos" >
  <crystal>
   <varray name="basis" >
    <v>      10.00000000       0.00000000       0.00000000 </v>
    <v>       0.00000000      10.00000000       0.00000000 </v>
    <v>       0.00000000       0.00000000      10.00000000 </v>
   </varray>
   <i name="volume">   1000.00000000 </i>
   <varray name="rec_basis" >
    <v>       0.10000000       0.00000000       0.00000000 </v>
    <v>       0.00000000       0.10000000       0.00000000 </v>
    <v>       0.00000000       0.00000000       0.10000000 </v>
   </varray>
  </crystal>
  <varray name="positions" >
   <v>       0.07000000       0.07000000       0.00000000 </v>
   <v>       0.93000000       0.07000000       0.00000000 </v>
   <v>       0.00000000       0.00000000       0.00000000 </v>
  </varray>
 </structure>
 <calculation>
  <scstep>
   <time name="dav">    0.02    0.02</time>
   <time name="total">    0.02    0.02</time>
   <energy>
    <i name="alphaZ">      0.22425129 </i>
    <i name="ewald">     54.51080601 </i>
    <i name="hartreedc">   -415.47089519 </i>
    <i name="XCdc">     33.58740183 </i>
    <i name="pawpsdc">    350.81753176 </i>
    <i name="pawaedc">   -352.63395800 </i>
    <i name="eentropy">     -0.15219945 </i>
    <i name="bandstr">    -63.69861590 </i>
    <i name="atom">    457.22046137 </i>
    <i name="e_fr_energy">     64.40478373 </i>
    <i name="e_wo_entrp">     64.55698318 </i>
    <i name="e_0_energy">     64.48088345 </i>
   </energy>
  </scstep>
  <scstep>
   <time name="dav">    0.01    0.01</time>
   <time name="total">    0.01    0.01</time>
   <energy>
    <i name="e_fr_energy">     55.43340645 </i>
    <i name="e_wo_entrp">     55.54310369 </i>
    <i name="e_0_energy">     55.48825507 </i>
   </energy>
  </scstep>
  <scstep>
   <time name="dav">    0.01    0.01</time>
   <time name="total">    0.01    0.01</time>
   <energy>
    <i name="e_fr_energy">     55.08234145 </i>
    <i name="e_wo_entrp">     55.16680727 </i>
    <i name="e_0_energy">     55.12457436 </i>
   </energy>
  </scstep>
  <scstep>
   <time name="dav">    0.02    0.02</time>
   <time name="total">    0.02    0.02</time>
   <energy>
    <i name="e_fr_energy">     55.07813620 </i>
    <i name="e_wo_entrp">     55.16243742 </i>
    <i name="e_0_energy">     55.12028681 </i>
   </energy>
  </scstep>
  <scstep>
   <time name="dav">    0.01    0.01</time>
   <time name="total">    0.02    0.02</time>
   <energy>
    <i name="e_fr_energy">     55.07810882 </i>
    <i name="e_wo_entrp">     55.16240951 </i>
    <i name="e_0_energy">     55.12025916 </i>
   </energy>
  </scstep>
  <scstep>
   <time name="diag">    0.00    0.00</time>
   <time name="diis">    0.01    0.01</time>
   <time name="orth">    0.00    0.00</time>
   <time name="total">    0.02    0.02</time>
   <energy>
    <i name="e_fr_energy">     78.67210488 </i>
    <i name="e_wo_entrp">     78.68862972 </i>
    <i name="e_0_energy">     78.68036730 </i>
   </energy>
  </scstep>
  <scstep>
   <time name="diag">    0.00    0.00</time>
   <time name="diis">    0.01    0.01</time>
   <time name="orth">    0.00    0.00</time>
   <time name="total">    0.02    0.02</time>
   <energy>
    <i name="e_fr_energy">     85.68351025 </i>
    <i name="e_wo_entrp">     85.72745650 </i>
    <i name="e_0_energy">     85.70548337 </i>
   </energy>
  </scstep>
  <scstep>
   <time name="diag">    0.00    0.00</time>
   <time name="diis">    0.01    0.01</time>
   <time name="orth">    0.00    0.00</time>
   <time name="total">    0.02    0.02</time>
   <energy>
    <i name="e_fr_energy">     85.28227148 </i>
    <i name="e_wo_entrp">     85.30557028 </i>
    <i name="e_0_energy">     85.29392088 </i>
   </energy>
  </scstep>
  <scstep>
   <time name="diag">    0.00    0.00</time>
   <time name="diis">    0.01    0.01</time>
   <time name="orth">    0.00    0.00</time>
   <time name="total">    0.02    0.02</time>
   <energy>
    <i name="e_fr_energy">     84.24288170 </i>
    <i name="e_wo_entrp">     84.25311014 </i>
    <i name="e_0_energy">     84.24799592 </i>
   </energy>
  </scstep>
  <scstep>
   <time name="diag">    0.00    0.00</time>
   <time name="diis">    0.01    0.01</time>
   <time name="orth">    0.00    0.00</time>
   <time name="total">    0.02    0.02</time>
   <energy>
    <i name="e_fr_energy">     83.34176092 </i>
    <i name="e_wo_entrp">     83.34523413 </i>
    <i name="e_0_energy">     83.34349752 </i>
   </energy>
  </scstep>
  <scstep>
   <time name="diag">    0.00    0.00</time>
   <time name="diis">    0.01    0.01</time>
   <time name="orth">    0.00    0.00</time>
   <time name="total">    0.02    0.02</time>
   <energy>
    <i name="e_fr_energy">     83.01824522 </i>
    <i name="e_wo_entrp">     83.01863969 </i>
    <i name="e_0_energy">     83.01844245 </i>
   </energy>
  </scstep>
  <scstep>
   <time name="diag">    0.00    0.00</time>
   <time name="diis">    0.01    0.01</time>
   <time name="orth">    0.00    0.00</time>
   <time name="total">    0.02    0.02</time>
   <energy>
    <i name="e_fr_energy">     83.01090581 </i>
    <i name="e_wo_entrp">     83.01131866 </i>
    <i name="e_0_energy">     83.01111223 </i>
   </energy>
  </scstep>
  <scstep>
   <time name="diag">    0.00    0.00</time>
   <time name="diis">    0.01    0.01</time>
   <time name="orth">    0.00    0.00</time>
   <time name="total">    0.02    0.02</time>
   <energy>
    <i name="e_fr_energy">     83.00569515 </i>
    <i name="e_wo_entrp">     83.00598998 </i>
    <i name="e_0_energy">     83.00584257 </i>
   </energy>
  </scstep>
  <scstep>
   <time name="diag">    0.00    0.00</time>
   <time name="diis">    0.01    0.01</time>
   <time name="orth">    0.00    0.00</time>
   <time name="total">    0.02    0.02</time>
   <energy>
    <i name="e_fr_energy">     83.00810276 </i>
    <i name="e_wo_entrp">     83.00845937 </i>
    <i name="e_0_energy">     83.00828107 </i>
   </energy>
  </scstep>
  <scstep>
   <time name="diag">    0.00    0.00</time>
   <time name="diis">    0.01    0.01</time>
   <time name="orth">    0.00    0.00</time>
   <time name="total">    0.02    0.02</time>
   <energy>
    <i name="e_fr_energy">     83.00832683 </i>
    <i name="e_wo_entrp">     83.00873013 </i>
    <i name="e_0_energy">     83.00852848 </i>
   </energy>
  </scstep>
  <scstep>
   <time name="diag">    0.00    0.00</time>
   <time name="diis">    0.01    0.01</time>
   <time name="orth">    0.00    0.00</time>
   <time name="total">    0.02    0.02</time>
   <energy>
    <i name="e_fr_energy">     83.00830149 </i>
    <i name="e_wo_entrp">     83.00864551 </i>
    <i name="e_0_energy">     83.00847350 </i>
   </energy>
  </scstep>
  <scstep>
   <time name="diag">    0.00    0.00</time>
   <time name="diis">    0.01    0.01</time>
   <time name="orth">    0.00    0.00</time>
   <time name="total">    0.02    0.02</time>
   <energy>
    <i name="e_fr_energy">     83.00802636 </i>
    <i name="e_wo_entrp">     83.00836102 </i>
    <i name="e_0_energy">     83.00819369 </i>
   </energy>
  </scstep>
  <scstep>
   <time name="diag">    0.00    0.00</time>
   <time name="diis">    0.01    0.01</time>
   <time name="orth">    0.00    0.00</time>
   <time name="total">    0.02    0.02</time>
   <energy>
    <i name="e_fr_energy">     83.00837602 </i>
    <i name="e_wo_entrp">     83.00875467 </i>
    <i name="e_0_energy">     83.00856534 </i>
   </energy>
  </scstep>
  <scstep>
   <time name="diag">    0.00    0.00</time>
   <time name="diis">    0.01    0.01</time>
   <time name="orth">    0.00    0.00</time>
   <time name="total">    0.02    0.02</time>
   <energy>
    <i name="alphaZ">      0.22425129 </i>
    <i name="ewald">     54.51080601 </i>
    <i name="hartreedc">   -311.80088357 </i>
    <i name="XCdc">     31.63496340 </i>
    <i name="pawpsdc">    438.19384520 </i>
    <i name="pawaedc">   -438.57396296 </i>
    <i name="eentropy">     -0.00039255 </i>
    <i name="bandstr">   -148.40077242 </i>
    <i name="atom">    457.22046137 </i>
    <i name="e_fr_energy">     83.00831576 </i>
    <i name="e_wo_entrp">     83.00870831 </i>
    <i name="e_0_energy">     83.00851204 </i>
   </energy>
  </scstep>
  <structure>
   <crystal>
    <varray name="basis" >
     <v>      10.00000000       0.00000000       0.00000000 </v>
     <v>       0.00000000      10.00000000       0.00000000 </v>
     <v>       0.00000000       0.00000000      10.00000000 </v>
    </varray>
    <i name="volume">   1000.00000000 </i>
    <varray name="rec_basis" >
     <v>       0.10000000       0.00000000       0.00000000 </v>
     <v>       0.00000000       0.10000000       0.00000000 </v>
     <v>       0.00000000       0.00000000       0.10000000 </v>
    </varray>
   </crystal>
   <varray name="positions" >
    <v>       0.07000000       0.07000000       0.00000000 </v>
    <v>       0.93000000       0.07000000       0.00000000 </v>
    <v>       0.00000000       0.00000000       0.00000000 </v>
   </varray>
  </structure>
  <varray name="forces" >
   <v>      14.73256230      -0.31236818       0.00000000 </v>
   <v>     -14.73256230      -0.31236818       0.00000000 </v>
   <v>       0.00000000       0.62473636       0.00000000 </v>
  </varray>
  <varray name="stress" >
   <v>     -70.82151979       0.00000000       0.00000000 </v>
   <v>       0.00000000     -55.49372449       0.00000000 </v>
   <v>       0.00000000       0.00000000    -145.41530814 </v>
  </varray>
  <energy>
   <i name="e_fr_energy">     83.00831576 </i>
   <i name="e_wo_entrp">     83.00851204 </i>
   <i name="e_0_energy">     -0.00039255 </i>
  </energy>
  <time name="totalsc">    0.40    0.41</time>
  <eigenvalues>
   <array>
    <dimension dim="1">band</dimension>
    <dimension dim="2">kpoint</dimension>
    <dimension dim="3">spin</dimension>
    <field>eigene</field>
    <field>occ</field>
    <set>
     <set comment="spin 1">
      <set comment="kpoint 1">
       <r>  -45.0560    1.0000 </r>
       <r>  -12.1379    1.0000 </r>
       <r>  -11.2490    1.0000 </r>
       <r>   -6.4408    1.0000 </r>
       <r>   -4.5747    0.0004 </r>
       <r>   -1.1683    0.0000 </r>
       <r>   -0.7352    0.0000 </r>
       <r>   -0.4065    0.0000 </r>
      </set>
      <set comment="kpoint 2">
       <r>  -44.9562    1.0000 </r>
       <r>  -12.0553    1.0000 </r>
       <r>  -11.0951    1.0000 </r>
       <r>   -6.3500    0.9999 </r>
       <r>   -4.3844    0.0001 </r>
       <r>   -1.0152    0.0000 </r>
       <r>   -0.8462    0.0000 </r>
       <r>   -0.4541    0.0000 </r>
      </set>
      <set comment="kpoint 3">
       <r>  -44.9546    1.0000 </r>
       <r>  -11.9370    1.0000 </r>
       <r>  -11.1463    1.0000 </r>
       <r>   -6.3576    1.0000 </r>
       <r>   -4.4953    0.0002 </r>
       <r>   -1.0546    0.0000 </r>
       <r>   -0.8125    0.0000 </r>
       <r>   -0.4360    0.0000 </r>
      </set>
      <set comment="kpoint 4">
       <r>  -44.8540    1.0000 </r>
       <r>  -11.8582    1.0000 </r>
       <r>  -10.9904    1.0000 </r>
       <r>   -6.2680    0.9999 </r>
       <r>   -4.3047    0.0000 </r>
       <r>   -0.9221    0.0000 </r>
       <r>   -0.7581    0.0000 </r>
       <r>   -0.5866    0.0000 </r>
      </set>
      <set comment="kpoint 5">
       <r>  -44.9415    1.0000 </r>
       <r>  -12.0067    1.0000 </r>
       <r>  -11.1244    1.0000 </r>
       <r>   -6.3581    1.0000 </r>
       <r>   -4.4504    0.0001 </r>
       <r>   -1.0076    0.0000 </r>
       <r>   -0.7425    0.0000 </r>
       <r>   -0.6226    0.0000 </r>
      </set>
      <set comment="kpoint 6">
       <r>  -44.8409    1.0000 </r>
       <r>  -11.9253    1.0000 </r>
       <r>  -10.9716    1.0000 </r>
       <r>   -6.2655    0.9999 </r>
       <r>   -4.2642    0.0000 </r>
       <r>   -0.8661    0.0000 </r>
       <r>   -0.7465    0.0000 </r>
       <r>   -0.6199    0.0000 </r>
      </set>
      <set comment="kpoint 7">
       <r>  -44.8392    1.0000 </r>
       <r>  -11.8076    1.0000 </r>
       <r>  -11.0228    1.0000 </r>
       <r>   -6.2751    0.9999 </r>
       <r>   -4.3719    0.0000 </r>
       <r>   -0.9318    0.0000 </r>
       <r>   -0.7260    0.0000 </r>
       <r>   -0.4793    0.0000 </r>
      </set>
      <set comment="kpoint 8">
       <r>  -44.7378    1.0000 </r>
       <r>  -11.7299    1.0000 </r>
       <r>  -10.8679    1.0000 </r>
       <r>   -6.1837    0.9997 </r>
       <r>   -4.1854    0.0000 </r>
       <r>   -0.8125    0.0000 </r>
       <r>   -0.6568    0.0000 </r>
       <r>   -0.5704    0.0000 </r>
      </set>
     </set>
    </set>
   </array>
  </eigenvalues>
  <separator name="orbital magnetization" >
   <v name="MAGDIPOLOUT">      0.00000000      0.00000000      0.00000000</v>
  </separator>
  <dos>
   <i name="efermi">     -5.36451076 </i>
   <total>
    <array>
     <dimension dim="1">gridpoints</dimension>
     <dimension dim="2">spin</dimension>
     <field>energy</field>
     <field>total</field>
     <field>integrated</field>
     <set>
      <set comment="spin 1">
       <r>   -47.2885     0.0000     0.0000 </r>
       <r>   -47.1248     0.0000     0.0000 </r>
       <r>   -46.9611     0.0000     0.0000 </r>
       <r>   -46.7973     0.0000     0.0000 </r>
       <r>   -46.6336     0.0000     0.0000 </r>
       <r>   -46.4699     0.0000     0.0000 </r>
       <r>   -46.3062     0.0000     0.0000 </r>
       <r>   -46.1425     0.0000     0.0000 </r>
       <r>   -45.9788     0.0002     0.0000 </r>
       <r>   -45.8151     0.0015     0.0003 </r>
       <r>   -45.6513     0.0080     0.0016 </r>
       <r>   -45.4876     0.0399     0.0081 </r>
       <r>   -45.3239     0.1979     0.0405 </r>
       <r>   -45.1602     0.8635     0.1819 </r>
       <r>   -44.9965     2.5812     0.6045 </r>
       <r>   -44.8328     4.0431     1.2664 </r>
       <r>   -44.6691     3.0045     1.7583 </r>
       <r>   -44.5053     1.1322     1.9437 </r>
       <r>   -44.3416     0.2743     1.9886 </r>
       <r>   -44.1779     0.0552     1.9978 </r>
       <r>   -44.0142     0.0045     1.9998 </r>
       <r>   -43.8505     0.0000     2.0000 </r>
       <r>   -43.6868     0.0000     2.0000 </r>
       <r>   -43.5230     0.0000     2.0000 </r>
       <r>   -43.3593     0.0000     2.0000 </r>
       <r>   -43.1956     0.0000     2.0000 </r>
       <r>   -43.0319     0.0000     2.0000 </r>
       <r>   -42.8682     0.0000     2.0000 </r>
       <r>   -42.7045     0.0000     2.0000 </r>
       <r>   -42.5408     0.0000     2.0000 </r>
       <r>   -42.3770     0.0000     2.0000 </r>
       <r>   -42.2133     0.0000     2.0000 </r>
       <r>   -42.0496     0.0000     2.0000 </r>
       <r>   -41.8859     0.0000     2.0000 </r>
       <r>   -41.7222     0.0000     2.0000 </r>
       <r>   -41.5585     0.0000     2.0000 </r>
       <r>   -41.3948     0.0000     2.0000 </r>
       <r>   -41.2310     0.0000     2.0000 </r>
       <r>   -41.0673     0.0000     2.0000 </r>
       <r>   -40.9036     0.0000     2.0000 </r>
       <r>   -40.7399     0.0000     2.0000 </r>
       <r>   -40.5762     0.0000     2.0000 </r>
       <r>   -40.4125     0.0000     2.0000 </r>
       <r>   -40.2487     0.0000     2.0000 </r>
       <r>   -40.0850     0.0000     2.0000 </r>
       <r>   -39.9213     0.0000     2.0000 </r>
       <r>   -39.7576     0.0000     2.0000 </r>
       <r>   -39.5939     0.0000     2.0000 </r>
       <r>   -39.4302     0.0000     2.0000 </r>
       <r>   -39.2665     0.0000     2.0000 </r>
       <r>   -39.1027     0.0000     2.0000 </r>
       <r>   -38.9390     0.0000     2.0000 </r>
       <r>   -38.7753     0.0000     2.0000 </r>
       <r>   -38.6116     0.0000     2.0000 </r>
       <r>   -38.4479     0.0000     2.0000 </r>
       <r>   -38.2842     0.0000     2.0000 </r>
       <r>   -38.1205     0.0000     2.0000 </r>
       <r>   -37.9567     0.0000     2.0000 </r>
       <r>   -37.7930     0.0000     2.0000 </r>
       <r>   -37.6293     0.0000     2.0000 </r>
       <r>   -37.4656     0.0000     2.0000 </r>
       <r>   -37.3019     0.0000     2.0000 </r>
       <r>   -37.1382     0.0000     2.0000 </r>
       <r>   -36.9745     0.0000     2.0000 </r>
       <r>   -36.8107     0.0000     2.0000 </r>
       <r>   -36.6470     0.0000     2.0000 </r>
       <r>   -36.4833     0.0000     2.0000 </r>
       <r>   -36.3196     0.0000     2.0000 </r>
       <r>   -36.1559     0.0000     2.0000 </r>
       <r>   -35.9922     0.0000     2.0000 </r>
       <r>   -35.8284     0.0000     2.0000 </r>
       <r>   -35.6647     0.0000     2.0000 </r>
       <r>   -35.5010     0.0000     2.0000 </r>
       <r>   -35.3373     0.0000     2.0000 </r>
       <r>   -35.1736     0.0000     2.0000 </r>
       <r>   -35.0099     0.0000     2.0000 </r>
       <r>   -34.8462     0.0000     2.0000 </r>
       <r>   -34.6824     0.0000     2.0000 </r>
       <r>   -34.5187     0.0000     2.0000 </r>
       <r>   -34.3550     0.0000     2.0000 </r>
       <r>   -34.1913     0.0000     2.0000 </r>
       <r>   -34.0276     0.0000     2.0000 </r>
       <r>   -33.8639     0.0000     2.0000 </r>
       <r>   -33.7002     0.0000     2.0000 </r>
       <r>   -33.5364     0.0000     2.0000 </r>
       <r>   -33.3727     0.0000     2.0000 </r>
       <r>   -33.2090     0.0000     2.0000 </r>
       <r>   -33.0453     0.0000     2.0000 </r>
       <r>   -32.8816     0.0000     2.0000 </r>
       <r>   -32.7179     0.0000     2.0000 </r>
       <r>   -32.5541     0.0000     2.0000 </r>
       <r>   -32.3904     0.0000     2.0000 </r>
       <r>   -32.2267     0.0000     2.0000 </r>
       <r>   -32.0630     0.0000     2.0000 </r>
       <r>   -31.8993     0.0000     2.0000 </r>
       <r>   -31.7356     0.0000     2.0000 </r>
       <r>   -31.5719     0.0000     2.0000 </r>
       <r>   -31.4081     0.0000     2.0000 </r>
       <r>   -31.2444     0.0000     2.0000 </r>
       <r>   -31.0807     0.0000     2.0000 </r>
       <r>   -30.9170     0.0000     2.0000 </r>
       <r>   -30.7533     0.0000     2.0000 </r>
       <r>   -30.5896     0.0000     2.0000 </r>
       <r>   -30.4259     0.0000     2.0000 </r>
       <r>   -30.2621     0.0000     2.0000 </r>
       <r>   -30.0984     0.0000     2.0000 </r>
       <r>   -29.9347     0.0000     2.0000 </r>
       <r>   -29.7710     0.0000     2.0000 </r>
       <r>   -29.6073     0.0000     2.0000 </r>
       <r>   -29.4436     0.0000     2.0000 </r>
       <r>   -29.2799     0.0000     2.0000 </r>
       <r>   -29.1161     0.0000     2.0000 </r>
       <r>   -28.9524     0.0000     2.0000 </r>
       <r>   -28.7887     0.0000     2.0000 </r>
       <r>   -28.6250     0.0000     2.0000 </r>
       <r>   -28.4613     0.0000     2.0000 </r>
       <r>   -28.2976     0.0000     2.0000 </r>
       <r>   -28.1338     0.0000     2.0000 </r>
       <r>   -27.9701     0.0000     2.0000 </r>
       <r>   -27.8064     0.0000     2.0000 </r>
       <r>   -27.6427     0.0000     2.0000 </r>
       <r>   -27.4790     0.0000     2.0000 </r>
       <r>   -27.3153     0.0000     2.0000 </r>
       <r>   -27.1516     0.0000     2.0000 </r>
       <r>   -26.9878     0.0000     2.0000 </r>
       <r>   -26.8241     0.0000     2.0000 </r>
       <r>   -26.6604     0.0000     2.0000 </r>
       <r>   -26.4967     0.0000     2.0000 </r>
       <r>   -26.3330     0.0000     2.0000 </r>
       <r>   -26.1693     0.0000     2.0000 </r>
       <r>   -26.0056     0.0000     2.0000 </r>
       <r>   -25.8418     0.0000     2.0000 </r>
       <r>   -25.6781     0.0000     2.0000 </r>
       <r>   -25.5144     0.0000     2.0000 </r>
       <r>   -25.3507     0.0000     2.0000 </r>
       <r>   -25.1870     0.0000     2.0000 </r>
       <r>   -25.0233     0.0000     2.0000 </r>
       <r>   -24.8596     0.0000     2.0000 </r>
       <r>   -24.6958     0.0000     2.0000 </r>
       <r>   -24.5321     0.0000     2.0000 </r>
       <r>   -24.3684     0.0000     2.0000 </r>
       <r>   -24.2047     0.0000     2.0000 </r>
       <r>   -24.0410     0.0000     2.0000 </r>
       <r>   -23.8773     0.0000     2.0000 </r>
       <r>   -23.7135     0.0000     2.0000 </r>
       <r>   -23.5498     0.0000     2.0000 </r>
       <r>   -23.3861     0.0000     2.0000 </r>
       <r>   -23.2224     0.0000     2.0000 </r>
       <r>   -23.0587     0.0000     2.0000 </r>
       <r>   -22.8950     0.0000     2.0000 </r>
       <r>   -22.7313     0.0000     2.0000 </r>
       <r>   -22.5675     0.0000     2.0000 </r>
       <r>   -22.4038     0.0000     2.0000 </r>
       <r>   -22.2401     0.0000     2.0000 </r>
       <r>   -22.0764     0.0000     2.0000 </r>
       <r>   -21.9127     0.0000     2.0000 </r>
       <r>   -21.7490     0.0000     2.0000 </r>
       <r>   -21.5853     0.0000     2.0000 </r>
       <r>   -21.4215     0.0000     2.0000 </r>
       <r>   -21.2578     0.0000     2.0000 </r>
       <r>   -21.0941     0.0000     2.0000 </r>
       <r>   -20.9304     0.0000     2.0000 </r>
       <r>   -20.7667     0.0000     2.0000 </r>
       <r>   -20.6030     0.0000     2.0000 </r>
       <r>   -20.4392     0.0000     2.0000 </r>
       <r>   -20.2755     0.0000     2.0000 </r>
       <r>   -20.1118     0.0000     2.0000 </r>
       <r>   -19.9481     0.0000     2.0000 </r>
       <r>   -19.7844     0.0000     2.0000 </r>
       <r>   -19.6207     0.0000     2.0000 </r>
       <r>   -19.4570     0.0000     2.0000 </r>
       <r>   -19.2932     0.0000     2.0000 </r>
       <r>   -19.1295     0.0000     2.0000 </r>
       <r>   -18.9658     0.0000     2.0000 </r>
       <r>   -18.8021     0.0000     2.0000 </r>
       <r>   -18.6384     0.0000     2.0000 </r>
       <r>   -18.4747     0.0000     2.0000 </r>
       <r>   -18.3110     0.0000     2.0000 </r>
       <r>   -18.1472     0.0000     2.0000 </r>
       <r>   -17.9835     0.0000     2.0000 </r>
       <r>   -17.8198     0.0000     2.0000 </r>
       <r>   -17.6561     0.0000     2.0000 </r>
       <r>   -17.4924     0.0000     2.0000 </r>
       <r>   -17.3287     0.0000     2.0000 </r>
       <r>   -17.1650     0.0000     2.0000 </r>
       <r>   -17.0012     0.0000     2.0000 </r>
       <r>   -16.8375     0.0000     2.0000 </r>
       <r>   -16.6738     0.0000     2.0000 </r>
       <r>   -16.5101     0.0000     2.0000 </r>
       <r>   -16.3464     0.0000     2.0000 </r>
       <r>   -16.1827     0.0000     2.0000 </r>
       <r>   -16.0189     0.0000     2.0000 </r>
       <r>   -15.8552     0.0000     2.0000 </r>
       <r>   -15.6915     0.0000     2.0000 </r>
       <r>   -15.5278     0.0000     2.0000 </r>
       <r>   -15.3641     0.0000     2.0000 </r>
       <r>   -15.2004     0.0000     2.0000 </r>
       <r>   -15.0367     0.0000     2.0000 </r>
       <r>   -14.8729     0.0000     2.0000 </r>
       <r>   -14.7092     0.0000     2.0000 </r>
       <r>   -14.5455     0.0000     2.0000 </r>
       <r>   -14.3818     0.0000     2.0000 </r>
       <r>   -14.2181     0.0000     2.0000 </r>
       <r>   -14.0544     0.0000     2.0000 </r>
       <r>   -13.8907     0.0000     2.0000 </r>
       <r>   -13.7269     0.0000     2.0000 </r>
       <r>   -13.5632     0.0000     2.0000 </r>
       <r>   -13.3995     0.0000     2.0000 </r>
       <r>   -13.2358     0.0000     2.0000 </r>
       <r>   -13.0721     0.0001     2.0000 </r>
       <r>   -12.9084     0.0010     2.0002 </r>
       <r>   -12.7447     0.0061     2.0012 </r>
       <r>   -12.5809     0.0302     2.0061 </r>
       <r>   -12.4172     0.1495     2.0306 </r>
       <r>   -12.2535     0.6544     2.1377 </r>
       <r>   -12.0898     1.9826     2.4623 </r>
       <r>   -11.9261     3.4225     3.0226 </r>
       <r>   -11.7624     3.3745     3.5751 </r>
       <r>   -11.5986     1.9400     3.8927 </r>
       <r>   -11.4349     0.9545     4.0490 </r>
       <r>   -11.2712     1.4999     4.2947 </r>
       <r>   -11.1075     3.1304     4.8082 </r>
       <r>   -10.9438     3.7757     5.4266 </r>
       <r>   -10.7801     2.4052     5.8205 </r>
       <r>   -10.6164     0.8461     5.9590 </r>
       <r>   -10.4526     0.1997     5.9917 </r>
       <r>   -10.2889     0.0355     5.9986 </r>
       <r>   -10.1252     0.0037     5.9999 </r>
       <r>    -9.9615     0.0000     6.0000 </r>
       <r>    -9.7978     0.0000     6.0000 </r>
       <r>    -9.6341     0.0000     6.0000 </r>
       <r>    -9.4704     0.0000     6.0000 </r>
       <r>    -9.3066     0.0000     6.0000 </r>
       <r>    -9.1429     0.0000     6.0000 </r>
       <r>    -8.9792     0.0000     6.0000 </r>
       <r>    -8.8155     0.0000     6.0000 </r>
       <r>    -8.6518     0.0000     6.0000 </r>
       <r>    -8.4881     0.0000     6.0000 </r>
       <r>    -8.3243     0.0000     6.0000 </r>
       <r>    -8.1606     0.0000     6.0000 </r>
       <r>    -7.9969     0.0000     6.0000 </r>
       <r>    -7.8332     0.0000     6.0000 </r>
       <r>    -7.6695     0.0000     6.0000 </r>
       <r>    -7.5058     0.0000     6.0000 </r>
       <r>    -7.3421     0.0002     6.0000 </r>
       <r>    -7.1783     0.0025     6.0004 </r>
       <r>    -7.0146     0.0115     6.0023 </r>
       <r>    -6.8509     0.0583     6.0119 </r>
       <r>    -6.6872     0.2865     6.0588 </r>
       <r>    -6.5235     1.2089     6.2567 </r>
       <r>    -6.3598     3.2740     6.7927 </r>
       <r>    -6.1961     4.1818     7.4773 </r>
       <r>    -6.0323     2.3261     7.8581 </r>
       <r>    -5.8686     0.6821     7.9698 </r>
       <r>    -5.7049     0.1479     7.9940 </r>
       <r>    -5.5412     0.0231     7.9991 </r>
       <r>    -5.3775     0.0009     8.0001 </r>
       <r>    -5.2138     0.0046     8.0009 </r>
       <r>    -5.0501     0.0227     8.0046 </r>
       <r>    -4.8863     0.1137     8.0232 </r>
       <r>    -4.7226     0.5184     8.1081 </r>
       <r>    -4.5589     1.7318     8.3916 </r>
       <r>    -4.3952     3.3319     8.9371 </r>
       <r>    -4.2315     3.5442     9.5173 </r>
       <r>    -4.0678     2.0756     9.8571 </r>
       <r>    -3.9040     0.6795     9.9684 </r>
       <r>    -3.7403     0.1530     9.9937 </r>
       <r>    -3.5766     0.0272     9.9989 </r>
       <r>    -3.4129     0.0028     9.9999 </r>
       <r>    -3.2492     0.0000    10.0000 </r>
       <r>    -3.0855     0.0000    10.0000 </r>
       <r>    -2.9218     0.0000    10.0000 </r>
       <r>    -2.7580     0.0000    10.0000 </r>
       <r>    -2.5943     0.0000    10.0000 </r>
       <r>    -2.4306     0.0000    10.0000 </r>
       <r>    -2.2669     0.0000    10.0000 </r>
       <r>    -2.1032     0.0001    10.0000 </r>
       <r>    -1.9395     0.0011    10.0002 </r>
       <r>    -1.7758     0.0060    10.0012 </r>
       <r>    -1.6120     0.0311    10.0063 </r>
       <r>    -1.4483     0.1550    10.0316 </r>
       <r>    -1.2846     0.6923    10.1450 </r>
       <r>    -1.1209     2.2862    10.5193 </r>
       <r>    -0.9572     5.0022    11.3382 </r>
       <r>    -0.7935     7.6946    12.5979 </r>
       <r>    -0.6297     8.5145    13.9919 </r>
       <r>    -0.4660     6.7413    15.0955 </r>
       <r>    -0.3023     3.8315    15.7230 </r>
       <r>    -0.1386     1.3093    15.9379 </r>
       <r>     0.0251     0.2974    15.9878 </r>
       <r>     0.1888     0.0521    15.9979 </r>
       <r>     0.3525     0.0056    15.9998 </r>
       <r>     0.5163     0.0000    16.0000 </r>
       <r>     0.6800     0.0000    16.0000 </r>
       <r>     0.8437     0.0000    16.0000 </r>
       <r>     1.0074     0.0000    16.0000 </r>
       <r>     1.1711     0.0000    16.0000 </r>
       <r>     1.3348     0.0000    16.0000 </r>
       <r>     1.4985     0.0000    16.0000 </r>
       <r>     1.6623     0.0000    16.0000 </r>
       <r>     1.8260     0.0000    16.0000 </r>
      </set>
     </set>
    </array>
   </total>
  </dos>
 </calculation>
 <structure name="finalpos" >
  <crystal>
   <varray name="basis" >
    <v>      10.00000000       0.00000000       0.00000000 </v>
    <v>       0.00000000      10.00000000       0.00000000 </v>
    <v>       0.00000000       0.00000000      10.00000000 </v>
   </varray>
   <i name="volume">   1000.00000000 </i>
   <varray name="rec_basis" >
    <v>       0.10000000       0.00000000       0.00000000 </v>
    <v>       0.00000000       0.10000000       0.00000000 </v>
    <v>       0.00000000       0.00000000       0.10000000 </v>
   </varray>
  </crystal>
  <varray name="positions" >
   <v>       0.07000000       0.07000000       0.00000000 </v>
   <v>       0.93000000       0.07000000       0.00000000 </v>
   <v>       0.00000000       0.00000000       0.00000000 </v>
  </varray>
 </structure>
</modeling>
