    #         X           Y           Z       CHARGE      MIN DIST   ATOMIC VOL
 --------------------------------------------------------------------------------
    1    0.700000    0.700000    0.000000    0.438202     0.140693   287.284690
    2    9.300000    0.700000    0.000000    0.438197     0.140718   297.577878
    3    0.000000    0.000000    0.000000    7.143794     0.707111   415.155432
 --------------------------------------------------------------------------------
    VACUUM CHARGE:               0.0000
    VACUUM VOLUME:               0.0000
    NUMBER OF ELECTRONS:         8.0202
